<VTKFile type="PolyData">
<PolyData>
<Piece NumberOfPoints="2177" NumberOfVerts="2177" NumberOfLines="0" NumberOfStrips="0" NumberOfPolys="0">
<PointData>
<DataArray type="Float64" Name="Pressure" format="ascii">
 25441.468625 24897.274486 23942.337005 22975.543620 22166.054037 21229.395085 19854.650871 18082.661261 16259.275954 14635.012761 13216.084655 11878.929027 10511.084106 9083.729721 7631.026988 6154.913460 4723.993696 3645.620533 2971.489303 2144.612665 994.502305 342.177424 140.867162 -404.193811 -1503.316489 -2519.209057 -3080.180642 -3225.850667 -3072.518298 -2728.942389 -2295.074527 -1846.326562 -1429.879622 -1070.389941 -776.565629 -546.915480 -374.260090 -248.959799 -161.005671 -101.225021 -61.861191 -36.743596 -21.210169 -11.898581 -6.487062 -3.437448 -1.770546 -0.886568 -0.431590 -0.204189 -0.093706 -0.041455 -0.017506 -0.007107 -0.002968 -0.001610 25088.441201 23803.651445 21606.167756 19878.937080 19102.833529 18459.897103 17160.847517 15202.608768 13328.168785 11907.135650 10786.663691 9729.430437 8575.842783 7304.633037 6108.542381 4813.386457 3184.691405 2136.099655 2384.480596 1967.261623 -481.561980 -678.239841 272.474194 208.349745 -1696.314843 -2878.051032 -3294.850290 -3340.079825 -3134.633995 -2756.099938 -2306.065513 -1851.044204 -1432.368523 -1072.046171 -777.832620 -547.925652 -375.058215 -249.572958 -161.460962 -101.551238 -62.086666 -36.893946 -21.306916 -11.958681 -6.523120 -3.458353 -1.782263 -0.892919 -0.434911 -0.205829 -0.094330 -0.041269 -0.016657 -0.006480 -0.002703 -0.001512 24469.985451 21762.045974 16359.621932 13553.559192 13397.431090 13708.570745 12927.975244 9939.167806 8126.191407 7314.707143 6909.918688 6665.801753 6326.674510 5082.194767 4942.902945 4266.730871 1057.658068 -744.646388 2480.866555 2896.176274 -4515.766282 -3107.045213 1073.472095 1522.964960 -2637.256511 -3764.111948 -3599.211857 -3506.699163 -3245.236431 -2793.399954 -2317.699820 -1854.388018 -1432.743890 -1071.402852 -776.921465 -547.039529 -374.302966 -248.974481 -161.010649 -101.226692 -61.861747 -36.743780 -21.210229 -11.898601 -6.487068 -3.437450 -1.770545 -0.886563 -0.431564 -0.204075 -0.093230 -0.039196 -0.013407 -0.004904 -0.002208 -0.001338 -0.005302 -0.002444 -0.001386 -0.002132 -0.001344 -0.000888 -0.000709 -0.000565 -0.000435 -0.000253 -0.000223 -0.000190 -0.000091 -0.000085 -0.000076 -0.000033 -0.000031 -0.000029 -0.000011 -0.000011 -0.000011 -0.000004 -0.000004 -0.000004 -0.000001 -0.000001 -0.000001 -0.000000 -0.000000 -0.000000 -0.000000 -0.000000 -0.000000 -0.000000 -0.000000 -0.000000 -0.000000 -0.000000 -0.000000 -0.000000 -0.000000 -0.000000 -0.000000 -0.000000 -0.000000 -0.000000 -0.000000 -0.000000 -0.000000 -0.000000 -0.000000 -0.000000 -0.000000 -0.000000 -0.000000 -0.000000 -0.000000 -0.000000 -0.000000 -0.000000 -0.000000 -0.000000 0.000000 0.000000 0.000000 0.000000 -0.000000 -0.000000 0.000000 -0.000000 -0.000000 -0.000000 -0.000000 -0.000000 -0.000000 -0.000000 -0.000000 -0.000000 -0.000000 -0.000000 -0.000000 -0.000000 -0.000000 -0.000000 -0.000000 -0.000000 -0.000000 -0.000000 -0.000000 -0.000000 -0.000000 -0.000000 -0.000000 -0.000000 -0.000000 -0.000000 -0.000000 -0.000000 -0.000000 -0.000000 -0.000000 -0.000000 -0.000000 -0.000000 -0.000000 -0.000000 -0.000000 -0.000000 -0.000000 -0.000000 -0.000000 -0.000000 -0.000000 -0.000000 -0.000000 -0.000000 -0.000000 -0.000000 -0.000000 -0.000000 -0.000000 -0.000000 -0.000000 -0.000000 -0.000000 -0.000000 -0.000000 -0.000000 -0.000000 -0.000000 -0.000000 -0.000000 -0.000000 -0.000000 -0.000000 -0.000000 -0.000000 -0.000000 -0.000000 -0.000000 -0.000000 -0.000000 -0.000000 -0.000000 -0.000000 -0.000000 -0.000000 -0.000000 -0.000000 -0.000000 -0.000000 -0.000000 -0.000000 -0.000000 -0.000000 -0.000000 -0.000000 -0.000000 -0.000000 -0.000000 -0.000000 -0.000000 -0.000000 -0.000000 -0.000000 -0.000000 -0.000000 -0.000000 -0.000000 -0.000000 -0.000000 -0.000000 -0.000000 -0.000000 -0.000000 -0.000000 -0.000000 -0.000000 -0.000000 -0.000000 -0.000000 -0.000000 -0.000000 -0.000000 -0.000000 -0.000000 -0.000000 -0.000000 -0.000000 -0.000000 -0.000000 -0.000000 -0.000000 -0.000000 -0.000000 -0.000000 -0.000000 -0.000000 -0.000000 -0.000000 -0.000000 -0.000000 -0.000000 -0.000000 -0.000000 -0.000000 -0.000000 -0.000000 -0.000000 -0.000000 -0.000000 -0.000000 -0.000000 -0.000000 -0.000000 -0.000000 -0.000000 -0.000000 -0.000000 -0.000000 -0.000000 -0.000000 -0.000000 -0.000000 -0.000000 -0.000000 -0.000000 -0.000000 -0.000000 -0.000000 -0.000000 -0.000000 -0.000000 -0.000000 -0.000000 -0.000000 -0.000000 -0.000000 -0.000000 -0.000000 -0.000000 -0.000000 -0.000000 -0.000000 -0.000000 -0.000000 -0.000000 -0.000000 -0.000000 -0.000000 -0.000000 -0.000000 -0.000000 -0.000000 -0.000000 -0.000000 -0.000000 -0.000000 -0.000000 -0.000000 -0.000000 -0.000000 -0.000000 -0.000000 -0.000000 -0.000000 -0.000000 -0.000000 -0.000000 -0.000000 -0.000000 -0.000000 -0.000000 -0.000000 -0.000000 -0.000000 -0.000000 -0.000000 -0.000000 -0.000000 -0.000000 -0.000000 -0.000000 -0.000000 -0.000000 -0.000000 -0.000000 -0.000000 -0.000000 -0.000000 -0.000000 -0.000000 -0.000000 -0.000000 -0.000000 -0.000000 -0.000000 -0.000000 -0.000000 -0.000000 -0.000000 -0.000000 -0.000000 12095.110570 10049.150960 8314.245819 10133.164997 8399.845924 9020.811256 3697.291206 -306.729497 3363.858768 16.285314 -1778.159080 1595.296328 -743.786274 -2293.755440 -1852.617590 -1599.029683 -1425.554054 -1259.632499 -1085.832975 -901.610603 -716.137891 -543.440509 -394.960622 -276.105231 -186.551812 -122.350422 -78.143336 -48.692922 -29.619137 -17.580363 -10.171655 -5.729601 -3.138353 -1.669859 -0.862421 -0.432104 -0.209965 -0.098931 -0.045200 -0.020027 -0.008606 -0.003588 -0.001451 -0.000570 -0.000217 -0.000080 -0.000029 -0.000010 -0.000003 -0.000001 -0.000000 -0.000000 -0.000000 -0.000000 -0.000000 -0.000000 11569.272974 11088.216361 11794.825898 12545.683475 12197.332589 10119.403666 2176.645344 -3225.887054 1200.615777 1384.274083 3606.011251 5085.347104 290.342280 -1438.658114 -1594.482664 -1543.112052 -1412.633964 -1257.196130 -1085.639493 -901.857456 -716.543861 -543.950322 -395.504472 -276.611031 -186.974305 -122.675924 -78.379621 -48.857102 -29.729476 -17.652483 -10.217578 -5.758067 -3.155498 -1.679870 -0.868079 -0.435196 -0.211597 -0.099763 -0.045609 -0.020221 -0.008695 -0.003627 -0.001468 -0.000577 -0.000220 -0.000081 -0.000029 -0.000010 -0.000003 -0.000001 -0.000000 -0.000000 -0.000000 -0.000000 -0.000000 -0.000000 11157.997740 11026.164025 10940.793798 10688.070966 9933.384695 8595.036002 5402.460950 2608.208720 2318.141760 1331.428956 1377.356952 1309.410844 -111.570442 -1097.317056 -1475.377843 -1502.917401 -1402.237866 -1255.533127 -1085.951032 -902.167322 -716.479241 -543.595833 -395.022108 -276.127485 -186.559302 -122.352771 -78.144018 -48.693102 -29.619178 -17.580370 -10.171655 -5.729600 -3.138353 -1.669858 -0.862421 -0.432104 -0.209965 -0.098931 -0.045200 -0.020027 -0.008606 -0.003588 -0.001451 -0.000570 -0.000217 -0.000080 -0.000029 -0.000010 -0.000003 -0.000001 -0.000000 -0.000000 -0.000000 -0.000000 -0.000000 -0.000000 24295.657228 20586.677226 12723.787586 9924.982607 11399.285062 11356.666789 10201.149432 6428.331951 4237.462684 4328.070774 4921.559217 5183.377397 6113.851644 4138.291258 4536.964642 4868.980444 588.505261 -5122.423894 -1242.173993 2562.666285 -6684.240681 -4332.167093 1398.853918 1704.255526 -3238.016651 -4150.577695 -3696.995822 -3573.733030 24585.024638 20591.598426 12776.885027 10846.852503 12678.362823 11936.067102 12639.365433 8688.558072 10483.191443 11344.323057 6191.951245 10291.930471 8818.151118 10112.881520 8563.502698 8556.988282 8000.836920 7852.451907 7460.832419 6421.488721 5984.218054 5644.375619 5161.005488 4420.976737 2616.518149 3488.039861 1361.432064 953.184589 25474.018589 22722.661332 17075.580127 10100.666790 13117.644273 13464.153138 12399.880592 12980.151052 12598.877607 12279.429247 12218.952413 9029.129546 10231.867093 8607.043027 7678.843646 7723.452818 7699.258000 7365.009344 6790.953855 6502.017608 6133.041728 4858.625765 3976.784859 3219.827667 1755.608213 4028.943997 330.421829 2023.343016 26571.149853 23288.698323 16742.696438 15775.271897 14669.055770 14769.944148 12068.205344 12690.502182 10083.092136 12787.557865 8037.686667 14300.485280 12676.846900 12516.197205 10929.055991 10956.389491 9205.575913 8430.244250 7459.847297 6603.946377 6380.053959 5203.129282 4250.365547 3488.603173 2328.330438 1508.287865 590.604712 -475.848698 27745.469927 23899.071820 18412.573338 14213.130749 14477.544161 17180.474218 12139.408202 15188.090088 13792.930315 9661.117612 13866.853250 9239.839402 6098.173266 14161.465216 13558.834211 2418.680286 6443.018216 7595.403668 7690.356267 6842.818949 5731.673031 4599.619088 3343.775887 2333.459381 1967.425066 820.337915 -443.979367 61.712879 28546.647955 23611.570579 16378.897774 14161.489253 13578.837447 11916.229711 14043.506424 12377.768141 15552.550647 12322.171380 12498.569230 16218.894221 6958.614102 7465.337843 13241.896381 2711.596206 12684.783827 9902.236170 6849.321994 6627.475018 6423.982281 5370.846971 3823.968928 2744.851286 1910.337363 1367.029671 -288.524955 401.976097 28934.852679 23898.397840 16006.868428 16537.440349 16259.377255 16419.493060 14767.685665 17820.006532 13279.756875 13203.619808 11694.766919 7283.076229 10848.603113 12212.208603 6258.986496 8707.823259 11391.993594 8720.884248 8735.502930 7288.187439 6234.455205 5478.586380 4225.648992 2712.360942 1861.087800 1018.998150 -241.564414 243.910842 29089.774875 23008.911989 14421.140744 14688.563595 15935.007628 15421.133618 15445.935069 9759.335013 14577.663062 13586.370037 10535.645476 13118.463018 9251.135389 10705.424585 9871.920613 11232.691928 9107.610332 8381.572991 7356.106160 6403.344586 6087.616005 4643.047244 3464.578692 3039.799171 2520.726649 1609.563502 -30.055853 540.616226 29156.678984 23326.487874 14928.994225 15904.758259 16240.859189 15075.515645 16226.511390 17037.299342 14826.594015 14520.658271 11208.530890 14581.845346 11695.955402 9104.112123 11145.003463 9549.958122 8143.037599 8435.763667 6536.658073 7423.503508 5682.410404 4294.007988 4474.959430 3607.834768 2587.364144 1375.232078 -434.196338 259.439152 28949.154161 22963.825562 16039.391382 19105.515422 16147.982979 18242.145641 16470.644725 15921.116616 15529.624065 12361.494887 13421.706203 13143.208541 8745.320170 10956.351990 11749.417494 7477.001404 8227.890967 7973.818582 6816.297760 8007.466608 5684.624178 5090.403571 4617.771650 3583.913053 2134.312359 637.653295 -340.768401 909.277930 28579.601934 22727.688330 14966.889141 19461.698623 17586.451094 18268.467397 14688.966769 16994.701888 13704.159739 15583.895722 11112.719098 9594.701376 12851.708583 10507.789268 11271.149078 8112.490366 8508.632432 8878.561741 6922.643678 5928.487540 6088.610515 6022.236037 4785.176879 3522.055119 2225.844699 544.924095 378.891886 1005.668137 28220.799748 22427.976306 14300.061055 18435.071524 17775.648413 19426.250956 17876.656766 18238.584349 14685.168641 15198.668894 10771.311184 13427.119712 11505.220266 13383.465022 10720.967958 8536.802772 9262.000829 7433.763058 7531.765680 4226.946246 6729.286641 3153.923907 3110.026197 4013.231053 3438.891257 281.026366 742.059158 1361.553232 27713.166853 23436.932224 19059.430410 19437.737057 19360.324734 19158.329483 16959.910149 16778.805091 13594.730830 12740.357297 14148.855972 11832.718313 16104.253209 7470.237117 9864.334104 2859.397596 8760.600509 7392.810034 3803.310543 6470.741901 9773.907873 7831.807687 4180.461076 2251.193894 4413.204896 1897.725021 -363.270517 1918.767001 27138.573438 22870.953892 17800.972494 21886.263406 19493.845244 19572.877619 18012.580942 15614.166498 16418.786874 13035.636104 10892.031909 8776.033986 6473.907060 3081.762884 4669.530357 10744.592854 6803.857681 4695.510335 1433.607349 2995.078298 4890.242618 4052.474681 1814.556068 5318.649235 3887.185388 5243.327562 5884.346064 728.655945 26883.939783 22876.774900 17914.247913 18885.376305 20230.780414 20685.679681 20385.063198 19936.193530 16448.208657 15160.965266 9631.055151 10101.444214 5547.713764 4455.382914 -2499.520904 5062.454152 -730.810740 -3611.390428 2102.475192 -428.593860 1577.796939 4394.869152 186.461926 1631.100359 8090.509910 3680.648069 1829.182745 1585.227085 26960.994873 22940.378833 18579.973607 20418.791084 23538.863011 20757.004867 16873.605671 15468.101092 14982.082027 10898.224982 15275.081781 3648.781690 3629.155039 27452.355347 23542.455990 17878.948944 22185.345665 21169.169339 21175.616053 18451.609699 19743.384499 12798.554444 13185.090144 8137.550744 1351.055020 215.573910 27844.922790 25925.808858 22553.917469 20676.033817 23304.088119 21689.267324 20127.221466 14128.638548 16567.319580 7073.682149 8717.030613 4407.751602 -722.846854 27451.808967 25744.129818 21981.422339 22286.395921 23707.765373 19550.165581 18977.000500 13556.083723 12089.080398 10361.905949 10292.215725 -11209.171252 719.811499 26796.908378 24818.702169 20346.803605 22440.068377 23771.691047 21630.357115 18489.582340 15288.286172 11019.761092 7432.999089 2024.038928 1358.651350 -1976.126874 26614.771044 24524.374112 21445.804386 22485.001685 22676.066382 22565.842432 14829.883506 16362.206333 13258.980810 3496.985717 3696.742712 3888.464118 -2541.475129 26785.517504 24524.934776 22620.208387 22883.954435 22070.197779 21008.739981 18797.152904 11907.839716 9562.442414 10663.328359 6536.833269 6430.992432 82.935388 26768.150836 25385.938939 21354.500362 23220.460613 22631.397119 20154.971780 19284.704809 15987.629715 11747.977276 11778.692906 4824.500362 7986.767254 -1384.564130 26551.588749 24735.208193 19961.127408 23462.927360 23814.082428 19828.029732 17925.408854 16227.016084 8097.515405 7382.593599 449.470194 2090.289538 -576.262644 26426.241503 25649.689078 23032.162156 23270.690069 24367.655729 19909.585790 17586.361927 16902.794521 16927.346376 3571.712422 6054.323259 261.185417 7953.443758 26311.703498 26139.758623 25505.202002 23038.081575 24329.352039 19742.665956 18389.137944 15293.939994 13096.889018 9811.779064 7370.427968 6003.713202 3918.018840 26027.832264 26170.958148 25093.511751 24757.079622 24926.367274 19739.097939 18557.881026 15109.658293 12810.331189 9173.215567 4793.245149 1101.665012 4952.257394 25584.458429 24939.916887 23068.210335 24239.910838 25441.307288 20312.778260 18427.674160 15057.766258 12730.319648 9517.878960 3722.692623 43.738944 4406.863552 25149.434465 25009.432496 23579.015017 24269.582965 25087.208839 21340.259497 17707.673919 16577.575459 12455.434503 9670.539089 1388.919667 5375.219543 5978.722842 24762.364438 24145.888003 22076.583656 25272.496206 24758.878373 21951.258595 17554.689469 16646.425245 14544.434066 9412.411559 7539.390368 4173.331294 -3590.886905 24563.723511 24477.549641 23535.301036 25438.411133 25014.692453 22180.831467 18488.900946 16101.077520 15588.055663 7326.878709 8299.315653 4909.737081 6940.755419 24360.013351 24193.983538 23864.546531 25903.928318 25156.542295 22163.873625 19708.929112 15427.716102 16330.761911 7330.379686 9629.942746 6682.168206 4006.825900 24132.646070 24151.297041 24510.308948 25798.385408 25035.086489 21889.099996 20446.790164 15377.350719 16274.646881 10281.885186 9557.474111 7257.374324 -801.636417 23925.834339 23945.104829 24364.406903 25518.500590 25189.514343 21712.900546 20828.231057 16005.713274 15448.081487 13012.266210 7640.778982 8039.654128 6120.976116 23757.039903 23882.511873 24882.444601 26076.901017 25443.392974 21919.980833 20852.313738 16996.179548 14208.033146 14735.169774 4071.028136 10371.437505 6594.930487 23593.201578 23596.488136 23971.246897 26169.232402 25232.824592 22321.720538 20617.517834 17785.972842 13499.284123 15548.581987 2071.113246 13441.576736 10666.953256 23460.499978 23368.755809 23650.052976 25448.653982 24865.167987 22642.750509 20498.499306 18110.794627 13557.492735 15304.760609 3318.488592 13931.459794 12731.046861 23413.801249 23175.171305 23190.137444 25412.861307 24817.272341 22756.436634 20565.203816 18078.514981 14117.574845 14225.422896 5945.717694 10500.369655 14239.472747 23493.004679 23153.620857 22447.387388 26068.523586 24920.045523 22681.063342 20678.513911 17832.364360 14795.012621 12987.471252 8196.387867 6443.745562 15517.248408 23633.361249 23460.162798 23240.233756 26012.421082 24884.988557 22494.989243 20719.142756 17555.715147 15237.847380 12062.702650 9831.490995 4475.530665 17409.019002 23708.079278 23748.821555 23891.955922 25241.801505 24662.476273 22244.381260 20587.009024 17350.251052 15331.915850 11554.354426 10990.740366 3726.974365 19506.740675 23696.299130 23777.428169 23599.487469 24441.794866 24389.755685 21955.849688 20271.914403 17200.322983 15091.194107 11378.382923 11444.495291 3238.691060 20423.293667 23645.124252 23720.131063 23285.962337 23911.597160 24123.027847 21655.777019 19821.351315 17047.236934 14620.819159 11350.763714 11066.838597 3261.267877 18967.650744 23569.661647 23668.741345 23285.384747 23653.511052 23803.805017 21341.753103 19295.063174 16834.823167 14057.763887 11286.827465 10204.880743 3755.676087 15175.986565 23463.707816 23577.155044 23223.561540 23427.910267 23423.664368 21000.713980 18753.784048 16539.955862 13500.028674 11071.844214 9292.745760 4150.514779 10771.517577 23333.426979 23415.470447 23022.693384 23175.027423 22987.815453 20631.552124 18240.806766 16172.748004 13010.102019 10708.531162 8547.067681 4193.779625 7451.852617 23195.106849 23199.664620 22672.197376 22859.374402 22500.527972 20250.383680 17781.182092 15765.238863 12622.887735 10274.749025 8009.072573 4028.950998 5484.980191 23065.597694 22956.631306 22207.800110 22507.035905 22015.469249 19877.651077 17395.324385 15359.121616 12350.392050 9854.035204 7645.810459 3834.288110 4382.206918 22956.955944 22716.896558 21702.208681 22177.637481 21579.042267 19530.673661 17095.488093 14987.856027 12183.205619 9497.492544 7406.734515 3695.974867 3752.668880 22874.469139 22503.098949 21205.480509 21900.099959 21213.703649 19224.627504 16880.317562 14666.510272 12093.385656 9217.422578 7242.897983 3625.631302 3362.519507 22818.100497 22331.765372 20750.282111 21677.365688 20927.147533 18967.949782 16737.223941 14393.786722 12043.405173 8999.761658 7112.105472 3597.572924 3086.069920 22784.095646 22214.143494 20376.189517 21512.886301 20720.450965 18764.099642 16650.687846 14162.835688 12000.365841 8823.268330 6983.911531 3579.834121 2862.451808 22766.217800 22155.644779 20115.574145 21419.944465 20596.434966 18618.334524 16610.955538 13973.158985 11949.232130 8675.894966 6847.561464 3553.681580 2669.210573 22757.121128 22156.101920 19991.548655 21417.332357 20562.579199 18541.580438 16618.969099 13836.271893 11897.758322 8561.930951 6712.913210 3519.491168 2505.830028 22749.582854 22210.498472 20014.484566 21520.396417 20627.136863 18548.509310 16684.496390 13772.237987 11870.544148 8498.188372 6603.034347 3491.963588 2381.116904 22737.391082 22310.218321 20180.419436 21733.097026 20792.629646 18651.445085 16818.621833 13799.833547 11895.645614 8503.169839 6542.055677 3489.482675 2303.265842 22715.836235 22444.438677 20472.308047 22044.675200 21050.755556 18853.425506 17025.228029 13926.369962 11991.072641 8586.178705 6544.311586 3524.153783 2273.944831 22681.834709 22601.161895 20863.097663 22431.205010 21381.255211 19144.284727 17296.115073 14142.594194 12157.406216 8741.749004 6609.337900 3596.993803 2286.975673 22633.812289 22767.827437 21319.527131 22860.458687 21754.613084 19500.956144 17611.473663 14424.498861 12378.523443 8951.023110 6723.619643 3698.995306 2330.615150 22571.414863 22931.704844 21806.090996 23298.535988 22137.855987 19891.410487 17944.554340 14740.216965 12628.403355 9188.077657 6866.711126 3815.937979 2391.429132 22495.094121 23079.723984 22287.168661 23714.848359 22501.161706 20281.208465 18268.053246 15058.258334 12879.811903 9427.461274 7018.145893 3933.837020 2457.739920 22405.790951 23198.780263 22728.967460 24085.106955 22822.699278 20640.016123 18559.313659 15353.527397 13110.818988 9649.536333 7162.151434 4042.539487 2521.437167 22304.790509 23276.929695 23102.071295 24392.336068 23089.941719 20945.255093 18803.016953 15609.515448 13307.216009 9842.066597 7288.926171 4136.516810 2577.973312 22193.642720 23305.093978 23384.173869 24625.993655 23296.397644 21181.815529 18990.363199 15816.311270 13460.883389 9998.364985 7392.986088 4213.383166 2625.119319 22074.095392 23278.771856 23562.799373 24780.961008 23438.071687 21340.551354 19116.473245 15967.031823 13566.518439 10114.009800 7470.318377 4271.545027 2661.363753 21948.051582 23199.047445 23636.660840 24856.507110 23510.969343 21416.704474 19178.066039 16055.096234 13619.036534 10184.314660 7516.283270 4308.501472 2684.740132 21817.561792 23072.365283 23614.325449 24854.581781 23509.718282 21408.406391 19172.029043 16073.525821 13613.178696 10204.044746 7525.585793 4320.857655 2692.659705 21684.826537 22909.102153 23511.363559 24779.595900 23431.387518 21319.827601 19098.725627 16018.830029 13546.809859 10170.017004 7494.425978 4305.989810 2682.773382 21552.159431 22721.154962 23344.937817 24635.711980 23275.537230 21159.254235 18961.789567 15893.372243 13424.135728 10084.776727 7424.078861 4264.966531 2654.655293 21421.877929 22519.680208 23130.808057 24429.609767 23051.809591 20944.972051 18774.541877 15711.329586 13259.821441 9959.625977 7323.225621 4204.482116 2611.482855 21296.083980 22313.362737 22881.132200 24169.908441 22776.770549 20698.609359 18555.539993 15496.183310 13077.634279 9814.631445 7208.178421 4136.874112 2560.370962 21176.438620 22108.244015 22607.280467 23872.775180 22477.309491 20446.438806 18328.658534 15277.455843 12905.436541 9674.246882 7099.379431 4077.537923 2511.567972 21063.980181 21908.420415 22322.487517 23561.552245 22184.350606 20213.400748 18118.552540 15084.453263 12767.271524 9558.824978 7013.108767 4037.849740 2474.445842 20959.183140 21717.727570 22044.456971 23264.978511 21922.733761 20010.739358 17935.952907 14931.780957 12674.226433 9480.579703 6959.495852 4023.125897 2454.572262 20862.188136 21541.159391 21796.719221 23016.539713 21719.171463 19855.399138 17794.992344 14824.952934 12618.088863 9430.423946 6929.964174 4024.107244 2449.864394 20773.259915 21385.172597 21600.704288 22834.613188 21565.402991 19724.562912 17675.192806 14745.668987 12579.347939 9394.406697 6911.919585 4026.460481 2450.748999 20693.177242 21257.882558 21478.591398 22739.491961 21476.769941 19635.919551 17581.119535 14674.101550 12524.180767 9342.481548 6880.228893 4008.865624 2444.606748 20623.443455 21165.392947 21429.387118 22703.891248 21396.448394 19535.261418 17474.009505 14583.565665 12429.524248 9255.070918 6819.799318 3959.077931 2417.752841 20566.225431 21112.855962 21453.559353 22725.240154 21349.876597 19457.582906 17363.050979 14464.689955 12291.381019 9132.011294 6727.787687 3877.812339 2370.140863 20523.648187 21096.808732 21505.637238 22721.946919 21246.648698 19345.010276 17223.180454 14309.210635 12104.393022 8971.418700 6608.310319 3771.932945 2299.977154 20497.342698 21112.346608 21571.090199 22700.886530 21149.350353 19237.381615 17077.618878 14162.240550 11932.761620 8824.259879 6500.925079 3685.551001 2235.396602 20486.989520 21142.580803 21573.858173 22568.212791 20989.759625 19133.750929 16928.432037 14006.634864 11772.860313 8703.172855 6404.095322 3605.836628 2177.506711 20490.746009 21174.659407 21524.344111 22382.807478 20831.960509 19005.093636 16819.281486 13956.240290 11709.454583 8664.341839 6395.932128 3628.418002 2172.214484 20503.827593 21191.174316 21370.642964 22102.602919 20723.101567 18980.713504 16730.410313 13917.474486 11725.280721 8720.121877 6413.479585 3635.626945 2187.392527 20519.504776 21187.658107 21196.024447 21847.489299 20564.647845 18862.652455 16727.228426 14038.510432 11810.904646 8796.699776 6515.179757 3797.794972 2264.057674 20532.608636 21130.285153 20882.335200 21556.955777 20631.815585 18899.395638 16700.256300 14065.382903 11953.283882 9043.402188 6624.823003 3782.411644 2334.535271 20541.892674 21111.169596 20790.259613 21413.181226 20511.089860 18718.464268 16704.965652 14230.199745 11971.313277 8923.274228 6633.564584 4024.644032 2309.148614 20528.417618 21040.433473 20617.798912 21328.654441 20512.180252 18697.914947 16619.328553 14061.621224 11916.064246 9270.385590 6617.135790 3704.661035 2457.430726 20511.967960 20874.294412 20209.797482 21127.119725 20522.660357 18348.627980 16263.570377 14135.030468 11705.473326 8501.284059 6537.464408 3745.700734 2010.844966 20515.302657 20964.930655 20568.398066 21326.641675 20182.041597 17985.519171 16465.085183 13224.492716 11531.455262 8796.631796 6008.474811 3842.345499 2058.757890 20477.655881 20933.650034 20355.589772 21027.892421 20075.456724 18007.548616 15912.478005 13275.249980 10826.420515 8428.649848 5809.834445 2941.963887 1864.456856 20375.412604 20854.274922 19810.382622 20565.682386 20966.381531 16653.541260 16100.188848 13137.078351 9888.541292 7917.482143 6125.500350 3701.400912 1628.494340 20076.903376 21445.275507 21602.915641 21448.230987 20749.370298 19387.728175 14875.416811 12550.908884 10960.891143 7766.800881 5323.519071 3145.846890 1622.754999 19407.292069 21283.379164 22988.491340 20296.010827 20383.133747 18053.961692 15343.624521 12327.763326 9058.089396 7467.615819 6017.136486 3831.942835 1730.736414 18758.969303 20612.475404 23374.916951 23650.580903 19901.626858 20032.905815 14590.424166 12314.202483 10513.466877 7650.386010 5343.504476 3325.685870 1613.171812 18413.523422 19028.761323 19116.728425 22531.134288 21346.661183 13608.730281 14296.497664 11770.278944 8300.249796 6424.843819 6000.285115 4156.676595 2375.708033 18266.985275 17413.727376 14812.347095 21597.791569 18793.533133 14966.716209 14540.663277 11989.426424 10830.582290 6449.242334 3416.760265 3067.906373 2280.342430 18050.911315 19084.216431 18214.345011 22134.438732 21398.407959 14404.377140 12406.706662 10951.764549 8711.422926 9399.601424 6063.516682 4983.535380 2998.290728 16708.436215 18017.612394 18819.161953 18979.234866 20059.577187 15172.681963 12541.922400 12164.154552 13318.750335 6540.725099 5124.803852 7457.121716 1413.819169 13782.092813 11760.802799 11789.131006 11021.188809 19803.285873 11330.396872 18929.668960 10992.081768 11025.206641 9563.979283 9636.951465 4674.218011 3684.328389 12095.110570 10049.150960 8314.245819 16868.212152 13287.356072 11312.594281 12656.946078 10785.873639 12207.880337 10806.703866 5785.135124 4023.054011 2592.893985
</DataArray>
<DataArray type="Float64" Name="Velocity" NumberOfComponents="3" format="ascii">