<VTKFile type="PolyData">
<PolyData>
<Piece NumberOfPoints="2177" NumberOfVerts="2177" NumberOfLines="0" NumberOfStrips="0" NumberOfPolys="0">
<PointData>
<DataArray type="Float64" Name="Pressure" format="ascii">
 15116.860759 16462.869814 18449.051983 20140.204140 20834.164745 20506.442430 19641.307884 18599.669099 17500.770474 16385.508137 15273.537865 14176.857574 13103.865201 12061.475608 11053.049669 10076.274115 9124.124739 8187.917805 7260.448017 6336.119765 5408.289556 4476.437340 3556.873878 2630.608417 1602.430181 267.994205 -1202.024646 -2038.795172 -2039.294959 -1568.159110 -1023.072038 -595.067812 -316.275870 -155.500643 -71.147606 -30.383095 -12.128555 -4.529573 -1.583416 -0.518283 -0.158883 -0.045626 -0.012276 -0.003095 -0.000731 -0.000162 -0.000034 -0.000007 -0.000001 -0.000000 -0.000000 -0.000000 -0.000000 0.000000 0.000000 0.000000 17758.445439 19318.110059 21586.178399 23378.355721 24139.827564 23628.022193 22769.605028 21807.920271 20697.982211 19570.912441 18441.892348 17303.970355 16162.706426 15025.571155 13888.981160 12734.024215 11550.076908 10343.186784 9129.405692 7933.390402 6750.846093 5543.803044 4328.943711 3084.382703 2015.331419 303.254565 -2219.252826 -3091.192154 -2659.249534 -1832.310005 -1121.186423 -629.334876 -328.164217 -159.719624 -72.697364 -30.967494 -12.350125 -4.612120 -1.613076 -0.528428 -0.162159 -0.046620 -0.012558 -0.003170 -0.000750 -0.000166 -0.000035 -0.000007 -0.000001 -0.000000 -0.000000 -0.000000 -0.000000 0.000000 -0.000000 -0.000000 21579.646462 23689.821198 26158.177023 26754.928191 27057.180408 25638.925757 26212.841068 25255.133890 24076.947810 23243.732465 22191.545743 21110.926265 19950.896136 18738.395830 17327.984089 15665.715267 13829.761118 11942.473642 10069.466187 8246.134787 6733.769107 4974.994718 3794.986568 1925.949970 1952.036778 554.232793 -5076.988347 -5047.135957 -3666.023451 -2151.425162 -1218.449123 -658.186669 -335.948177 -161.457003 -72.905778 -30.889127 -12.270257 -4.568055 -1.593518 -0.520837 -0.159504 -0.045771 -0.012308 -0.003102 -0.000733 -0.000162 -0.000034 -0.000007 -0.000001 -0.000000 -0.000000 -0.000000 -0.000000 -0.000000 -0.000000 0.000000 -0.000000 -0.000000 0.000000 -0.000000 -0.000000 0.000000 0.000000 0.000000 0.000000 -0.000000 -0.000000 -0.000000 -0.000000 -0.000000 -0.000000 -0.000000 -0.000000 -0.000000 -0.000000 -0.000000 -0.000000 -0.000000 -0.000000 -0.000000 -0.000000 -0.000000 -0.000000 -0.000000 -0.000000 0.000000 0.000000 0.000000 0.000000 0.000000 0.000000 0.000000 0.000000 0.000000 -0.000000 -0.000000 -0.000000 -0.000000 -0.000000 -0.000000 -0.000000 -0.000000 -0.000000 -0.000000 -0.000000 -0.000000 -0.000000 -0.000000 -0.000000 -0.000000 -0.000000 -0.000000 -0.000000 -0.000000 -0.000000 -0.000000 -0.000000 -0.000000 0.000000 0.000000 0.000000 0.000000 -0.000000 -0.000000 0.000000 -0.000000 -0.000000 -0.000000 -0.000000 -0.000000 -0.000000 -0.000000 -0.000000 -0.000000 -0.000000 -0.000000 -0.000000 -0.000000 -0.000000 -0.000000 -0.000000 -0.000000 -0.000000 -0.000000 -0.000000 -0.000000 -0.000000 -0.000000 -0.000000 -0.000000 -0.000000 -0.000000 -0.000000 -0.000000 -0.000000 -0.000000 -0.000000 -0.000000 -0.000000 -0.000000 -0.000000 -0.000000 -0.000000 -0.000000 -0.000000 -0.000000 -0.000000 -0.000000 -0.000000 -0.000000 -0.000000 -0.000000 -0.000000 -0.000000 -0.000000 -0.000000 -0.000000 -0.000000 -0.000000 -0.000000 -0.000000 -0.000000 -0.000000 -0.000000 -0.000000 -0.000000 -0.000000 -0.000000 -0.000000 -0.000000 -0.000000 -0.000000 -0.000000 -0.000000 -0.000000 -0.000000 -0.000000 -0.000000 -0.000000 -0.000000 -0.000000 -0.000000 -0.000000 -0.000000 -0.000000 -0.000000 -0.000000 -0.000000 -0.000000 -0.000000 -0.000000 -0.000000 -0.000000 -0.000000 -0.000000 -0.000000 -0.000000 -0.000000 -0.000000 -0.000000 -0.000000 -0.000000 -0.000000 -0.000000 -0.000000 -0.000000 -0.000000 -0.000000 -0.000000 -0.000000 -0.000000 -0.000000 -0.000000 -0.000000 -0.000000 -0.000000 -0.000000 -0.000000 -0.000000 -0.000000 -0.000000 -0.000000 -0.000000 -0.000000 -0.000000 -0.000000 -0.000000 -0.000000 -0.000000 -0.000000 -0.000000 -0.000000 -0.000000 -0.000000 -0.000000 -0.000000 -0.000000 -0.000000 -0.000000 -0.000000 -0.000000 -0.000000 -0.000000 -0.000000 -0.000000 -0.000000 -0.000000 -0.000000 -0.000000 -0.000000 -0.000000 -0.000000 -0.000000 -0.000000 -0.000000 -0.000000 -0.000000 -0.000000 -0.000000 -0.000000 -0.000000 -0.000000 -0.000000 -0.000000 -0.000000 -0.000000 -0.000000 -0.000000 -0.000000 -0.000000 -0.000000 -0.000000 -0.000000 -0.000000 -0.000000 -0.000000 -0.000000 -0.000000 -0.000000 -0.000000 -0.000000 -0.000000 -0.000000 -0.000000 -0.000000 -0.000000 -0.000000 -0.000000 -0.000000 -0.000000 -0.000000 -0.000000 -0.000000 -0.000000 -0.000000 -0.000000 -0.000000 -0.000000 -0.000000 -0.000000 -0.000000 -0.000000 -0.000000 -0.000000 -0.000000 -0.000000 -0.000000 -0.000000 -0.000000 -0.000000 -0.000000 -0.000000 -0.000000 -0.000000 -0.000000 -0.000000 -0.000000 -0.000000 -0.000000 -0.000000 -0.000000 -0.000000 -0.000000 -0.000000 -0.000000 -0.000000 -0.000000 -0.000000 -0.000000 -0.000000 -0.000000 0.000000 0.000000 0.000000 0.000000 -0.000000 0.000000 0.000000 -0.000000 10398.225412 7342.381736 2595.093111 3476.852668 2530.412785 1935.850198 1361.576354 417.886548 68.764057 -808.621869 6.648554 -3083.513589 -6106.931203 -3852.448706 -1482.445216 -1021.164385 -961.845152 -799.626945 -560.017701 -338.174279 -180.242368 -86.228812 -37.459175 -14.895613 -5.452750 -1.845095 -0.578900 -0.168807 -0.045832 -0.011603 -0.002742 -0.000605 -0.000125 -0.000024 -0.000004 -0.000001 -0.000000 -0.000000 -0.000000 -0.000000 0.000000 0.000000 -0.000000 0.000000 -0.000000 -0.000000 -0.000000 -0.000000 -0.000000 -0.000000 -0.000000 -0.000000 -0.000000 0.000000 0.000000 -0.000000 10499.635991 8312.204914 4516.541662 2682.021665 1231.231244 1100.722437 98.987530 -993.462997 -311.674583 -560.726226 -267.136620 -1351.780790 -2821.874245 -1970.781402 -1304.234241 -1084.671254 -997.843622 -812.418912 -564.440462 -340.174910 -181.396445 -86.907543 -37.823100 -15.069591 -5.527198 -1.873850 -0.589002 -0.172055 -0.046792 -0.011864 -0.002808 -0.000621 -0.000128 -0.000025 -0.000004 -0.000001 -0.000000 -0.000000 -0.000000 -0.000000 -0.000000 -0.000000 -0.000000 0.000000 -0.000000 -0.000000 -0.000000 -0.000000 -0.000000 -0.000000 -0.000000 -0.000000 -0.000000 0.000000 0.000000 -0.000000 10920.862228 9722.899921 7733.560314 5993.749940 4624.417390 3704.299152 2478.255132 1431.975065 1213.166963 603.070905 -411.374965 -1460.270842 -2061.036870 -1695.881600 -1295.965014 -1154.065357 -1038.728851 -826.983903 -567.413429 -339.609424 -180.324462 -86.134226 -37.396811 -14.868836 -5.443243 -1.842113 -0.578050 -0.168584 -0.045778 -0.011590 -0.002739 -0.000605 -0.000125 -0.000024 -0.000004 -0.000001 -0.000000 -0.000000 -0.000000 -0.000000 -0.000000 -0.000000 0.000000 0.000000 0.000000 -0.000000 -0.000000 -0.000000 -0.000000 -0.000000 -0.000000 -0.000000 -0.000000 0.000000 -0.000000 0.000000 23701.685794 26675.140871 29780.762513 28937.185007 28640.320781 25665.458739 27611.989327 26388.627525 24919.635150 24612.796032 23708.176216 22777.181793 21551.252528 20275.780947 18643.280116 16538.693322 14212.408976 11817.029478 9428.835837 7055.506159 5206.005677 2997.682794 2103.879829 -674.461569 -912.624446 -951.116958 -7402.759634 -6201.517031 28470.599409 34276.597782 40203.100182 33365.004249 40768.024795 35804.213616 32307.969201 32634.671671 32311.233178 30191.124629 30456.491506 29774.760068 28617.625037 27509.605905 26013.824075 24607.651936 23073.695364 21228.810058 19150.494149 16843.183861 14377.795418 11909.566977 9333.745986 6387.635769 4761.895875 2321.320395 1138.742810 2189.945642 32977.147821 38761.608734 42825.441895 42199.985480 45192.162580 48985.081938 41014.874519 39375.091600 39964.474752 37381.828395 37364.483698 36005.046161 34612.933420 33402.782203 31385.402493 29597.715218 27734.421253 25643.227896 23367.731039 20716.724908 17875.312795 14997.051422 12386.577984 9381.539233 7308.228831 3733.205121 1862.136741 1232.746809 35539.505677 39171.401147 40842.747558 41786.292225 49205.707251 49540.081556 40628.101254 41092.567134 39607.754414 36925.014516 36909.337848 35230.583649 34039.758691 32873.803750 30699.878967 28914.980520 26739.883492 24319.447778 21810.025324 18959.828980 16064.061071 13105.535298 10397.854979 7637.629173 5745.494371 4623.745829 1287.982268 525.834918 37004.020691 39728.443646 41383.858318 43819.728667 48675.395872 45705.174421 42674.681996 40545.473600 37877.798736 36727.463250 36097.913497 33963.964552 32869.927121 31279.038059 29024.376859 27397.247677 25252.379577 23144.386628 21096.911833 18822.786704 16510.045563 14051.773844 11679.870102 9521.586636 6395.035042 4889.373476 3423.237989 906.295489 37407.198868 39279.967642 40325.045927 42837.041914 47878.763933 44719.308048 40597.304587 38464.544890 37485.416764 36398.565681 34828.563606 33167.780803 32242.766846 30439.496105 28626.545421 27076.355119 24918.048871 22850.681763 20697.835565 18333.641147 16006.925121 13692.391133 11153.713741 9352.411380 7482.269412 4929.254176 2568.553187 971.669260 36993.661335 38841.378587 39724.553904 41668.594529 43934.868866 42661.876544 40233.635154 38440.422397 37321.725864 35354.715478 34047.020756 33078.155855 31349.067140 29367.804335 27512.407378 25675.736090 23658.591934 21798.200117 19863.718632 17777.142053 15635.614734 13609.275733 11520.480229 9301.817687 7386.801684 5726.446145 3461.065568 1325.536583 36229.491665 38473.496286 40472.846638 41644.247220 44125.453253 42699.425940 39550.674204 37807.968241 36527.566815 34563.091088 33555.626648 31428.742835 29241.909241 27944.801173 26265.594656 24579.902955 22767.553951 20924.590255 19058.164390 17122.098366 15162.817217 13144.055797 11300.069119 9635.519263 7605.401737 5525.781775 3240.545152 1334.598871 35287.751970 37462.994314 39623.826040 40729.328243 42536.841261 41285.426600 38398.584474 36920.664112 35481.261189 33270.720708 31882.091188 30445.353739 29426.691068 27842.583053 25365.137968 23378.133009 21508.465059 19642.858836 17861.571557 16040.439216 14290.334180 12543.890908 10735.489017 9166.619184 7577.712403 5796.770277 3510.849773 1482.367888 34262.356350 36583.208159 39162.259364 40038.208814 41553.768834 40327.020830 37601.965305 35611.693260 33879.623351 32661.879692 31874.285513 29286.333712 26246.958590 24304.168640 23149.269776 22178.164137 20589.428459 18703.477460 16870.265252 14996.736480 13236.580760 11651.655810 10127.985262 8674.190828 7092.287571 5415.216365 3307.241242 1394.770600 33165.227651 35440.781427 38233.077527 38753.363893 40045.502312 38979.427895 35787.613808 33922.813775 33511.387549 31271.639694 27996.237731 26732.916621 27664.930830 26865.845390 23346.241658 19989.012848 18022.073406 16744.061736 15487.583090 13921.300790 12210.857394 10613.221428 9189.760695 7980.266826 6670.937285 5170.893738 3186.384930 1334.510369 32003.331651 34153.543820 36929.717319 37293.764069 38552.947189 37007.016119 33969.768016 33336.211331 31084.689138 27948.436972 29603.054745 29126.921771 23614.513092 19047.349405 20623.034407 22067.365598 19976.075525 16553.133130 13715.855912 11737.501861 10318.015757 9084.608051 7902.783428 6868.154369 5757.852781 4516.927547 2828.784154 1173.856299 30801.574388 32733.314638 35379.361896 35784.136243 36786.992510 34849.985869 33015.665204 31060.753945 28060.706798 30047.651952 27566.631931 19873.509964 25081.940491 25157.446626 18504.856123 11781.380713 11004.504555 13995.790248 14491.844315 12599.864168 10086.123913 8205.571067 6858.848385 5834.915587 4850.741443 3942.555365 2500.766153 988.723905 29583.118545 31242.770357 33691.661456 34132.989982 34673.692665 33052.056571 31480.767054 27776.705630 28876.217358 27512.455586 20409.401403 27811.881201 23300.190829 12566.946821 23730.047082 23238.213425 20299.193050 13422.644058 7223.475671 5205.493998 4900.614274 4500.577883 3999.041932 3512.571701 2999.837565 2511.526934 1267.248134 718.821418 28364.521051 29743.880291 31967.179232 32361.617017 32561.712567 31510.877676 28970.426397 26251.139525 29077.995989 21077.789489 24547.310998 23855.768587 15815.256205 20593.795575 15484.956850 15328.890395 20889.958898 21787.239841 21273.662955 16757.349179 10549.531383 5836.867552 3361.543598 2197.693441 1593.888765 1201.450150 853.875669 927.477707 27155.556851 28263.232586 30231.511531 30497.999203 30537.013487 29709.740410 26264.707409 26048.163577 25667.900785 18120.485628 25421.403072 11053.695777 28332.652655 25964.340735 26800.870399 28488.002217 28624.601365 28576.449315 27621.278512 24100.107405 25380.191384 20958.521084 21811.127072 21815.265711 11405.126678 -22262.575558 24801.702557 25358.517974 26758.199214 26794.914689 26643.327632 25443.531985 22351.960291 23446.592161 17927.576766 24834.830643 11498.468353 21964.026217 11752.651522 23681.469810 23947.675579 25061.198551 25009.887969 24733.689183 23332.458194 20683.900325 20726.329514 16894.746445 21462.485050 9084.160473 21138.706081 18851.022937 22618.186259 22582.661463 23398.622666 23254.309285 22864.764741 21350.317247 18989.111012 17973.823293 16092.464516 16061.262279 12558.049118 12718.297082 16233.160029 21624.783653 21273.738080 21755.501305 21520.396921 21052.645936 19509.159956 17263.078160 15733.560303 14576.697868 12542.071685 12629.927027 6917.700373 14231.524207 20711.297105 20026.794766 20108.372092 19802.403510 19302.517758 17789.096480 15557.460224 13960.149531 12678.255736 10362.655698 10503.437780 4917.099418 9717.232796 19884.726223 18848.494784 18443.913072 18096.912640 17616.106698 16150.574660 13960.722916 12426.606392 10994.225073 8816.321557 8172.159842 4195.801802 5755.165688 19149.293173 17749.579169 16774.533768 16411.056412 15989.153770 14563.402155 12489.616409 11024.942740 9575.378303 7632.350083 6447.770433 3554.102002 3474.790954 18506.327525 16742.311821 15134.473864 14765.503609 14419.255175 13014.232613 11115.496436 9724.376187 8351.117295 6613.158981 5278.740659 3000.911160 2264.423071 17954.048641 15836.358152 13564.667159 13187.764888 12917.063578 11507.489438 9810.447347 8494.896312 7259.738022 5690.720965 4398.564301 2553.852252 1632.306181 17487.839248 15036.858530 12103.145212 11706.651444 11502.748569 10065.248855 8569.156267 7322.230681 6248.815284 4840.377537 3671.379545 2167.597643 1256.246620 17100.831790 14344.890215 10781.116512 10348.974488 10198.170762 8716.809131 7405.908706 6216.954944 5300.592007 4045.883555 3035.235318 1821.044111 989.959098 16784.504239 13758.165033 9619.109988 9135.946642 9023.673940 7489.503873 6341.519724 5201.188122 4425.820704 3312.464643 2466.535951 1505.162144 776.988989 16529.509034 13269.720467 8623.128515 8078.558672 7993.062429 6403.295970 5393.991912 4294.758540 3641.588875 2654.729930 1964.112164 1221.062113 597.841126 16326.518144 12869.553602 7787.524593 7176.946486 7110.036507 5467.148431 4573.530010 3509.327146 2959.584151 2083.236581 1531.128732 972.775387 446.646008 16166.785180 12546.214221 7098.960944 6422.604722 6369.128357 4678.831950 3880.621650 2846.675649 2383.032056 1600.976763 1167.621454 762.199933 321.013646 16042.458299 12287.995613 6539.358269 5801.517740 5758.398598 4027.691855 3307.503718 2299.899089 1907.107273 1203.958353 869.545750 588.374738 218.721120 15946.721912 12083.865657 6089.433612 5296.675434 5262.167037 3498.117806 2841.236065 1856.534484 1521.467111 883.308882 629.667263 447.966133 136.938397 15873.805741 11924.003190 5730.840990 4890.457464 4863.512124 3072.590622 2466.636187 1501.707977 1213.240770 627.918225 439.266010 336.355027 72.461709 15818.909408 11799.975636 5447.250977 4566.291104 4546.113081 2733.903036 2168.491194 1220.444087 969.268939 426.445905 289.562534 248.609626 22.107260 15778.089491 11704.701389 5224.706186 4309.515605 4295.310978 2466.456723 1932.914805 999.075741 777.476699 268.526103 172.584245 180.107830 -17.004106 15748.139397 11632.308965 5051.545628 4107.649982 4098.537192 2256.807967 1747.950801 825.876178 627.508245 145.320100 81.564857 126.858517 -47.301741 15726.477091 11577.965535 4918.125856 3950.291190 3945.317756 2093.721083 1603.665831 691.158845 510.844598 49.610901 11.006577 85.593794 -70.738328 15711.045810 11537.713752 4816.490765 3828.840210 3827.049661 1967.956391 1491.960949 587.086707 420.636696 -24.353779 -43.446774 53.723862 -88.835320 15700.227785 11508.331878 4740.071037 3736.191673 3736.698022 1871.959786 1406.272547 507.365749 351.423242 -81.118680 -85.212446 29.228762 -102.760493 15692.769164 11487.218352 4683.442551 3666.458885 3668.503448 1799.554849 1341.269960 446.932359 298.839256 -124.284787 -116.976833 10.535537 -113.410288 15687.714290 11472.296051 4642.142815 3614.758942 3617.739706 1745.683592 1292.601245 401.688601 259.368763 -156.732287 -140.872287 -3.591565 -121.481246 15684.348098 11461.930491 4612.531157 3577.054455 3580.529095 1706.206084 1256.700536 368.300612 230.157549 -180.788409 -158.610949 -14.136681 -127.524508 15682.146025 11454.857589 4591.676252 3550.036132 3553.705640 1677.750208 1230.649337 344.053619 208.880577 -198.344931 -171.578654 -21.893116 -131.983601 15680.731142 11450.118628 4577.258205 3531.029256 3534.710828 1657.596409 1212.076081 326.748333 193.649784 -210.938219 -180.898509 -27.504090 -135.218943 15679.838322 11447.001680 4567.477903 3517.911335 3521.508138 1643.583392 1199.078553 314.623102 182.947159 -219.805550 -187.474783 -31.489794 -137.523381 15679.285079 11444.989693 4560.971065 3509.033997 3512.507179 1634.025135 1190.157947 306.289963 175.571395 -225.928609 -192.025805 -34.266446 -139.132590 15678.948541 11443.715668 4556.727559 3503.147110 3506.492948 1627.634338 1184.158291 300.677566 170.590890 -230.070992 -195.111516 -36.161386 -140.233010 15678.747802 11442.925190 4554.017850 3499.326152 3502.559223 1623.451013 1180.209028 296.977977 167.299871 -232.813027 -197.158613 -37.426477 -140.968878 15678.630817 11442.446166 4552.328457 3496.905072 3500.046994 1620.776906 1177.670984 294.596983 165.176994 -234.584723 -198.484225 -38.250776 -141.448975 15678.564971 11442.165216 4551.307515 3495.416706 3498.489311 1619.116983 1176.086898 293.108665 163.847018 -235.696512 -199.318032 -38.772586 -141.753200 15678.530488 11442.009846 4550.720506 3494.541896 3497.563478 1618.128840 1175.137580 292.215069 163.046366 -236.367095 -199.822412 -39.090726 -141.938840 15678.515984 11441.935371 4550.415243 3494.067264 3497.050683 1617.580012 1174.604075 291.711288 162.592962 -236.748038 -200.110354 -39.274785 -142.046366 15678.515530 11441.915434 4550.294457 3493.850536 3496.802229 1617.312280 1174.335358 291.455546 162.360134 -236.945198 -200.261173 -39.374346 -142.104725 15678.526741 11441.935028 4550.293855 3493.791564 3496.710871 1617.211401 1174.220462 291.343309 162.253828 -237.037558 -200.334380 -39.427266 -142.136127 15678.549455 11441.984923 4550.363344 3493.806868 3496.685532 1617.180430 1174.163685 291.284233 162.192227 -237.094120 -200.382165 -39.467177 -142.160425 15678.584630 11442.056486 4550.449279 3493.805792 3496.627979 1617.115195 1174.061863 291.181091 162.087129 -237.189339 -200.460743 -39.530229 -142.199056 15678.633074 11442.135961 4550.476126 3493.667317 3496.411083 1616.881502 1173.783762 290.910836 161.827366 -237.416770 -200.640251 -39.660741 -142.278322 15678.693631 11442.197517 4550.327125 3493.218368 3495.860103 1616.295587 1173.153459 290.309606 161.266046 -237.899322 -201.011941 -39.914811 -142.431419 15678.760435 11442.194756 4549.825376 3492.217112 3494.740932 1615.111856 1171.941991 289.165772 160.215416 -238.792884 -201.690189 -40.360277 -142.698224 15678.818887 11442.051115 4548.719482 3490.348050 3492.762074 1613.024813 1169.874073 287.227272 158.455055 -240.278469 -202.805761 -41.070841 -143.121479 15678.840244 11441.650706 4546.681061 3487.238806 3489.599182 1609.694180 1166.658231 284.230845 155.760118 -242.537308 -204.486362 -42.112174 -143.738072 15678.775059 11440.832640 4543.324355 3482.510058 3484.950985 1604.802127 1162.047785 279.959545 151.955050 -245.704574 -206.821615 -43.518864 -144.564765 15678.546404 11439.393439 4538.259349 3475.867874 3478.631365 1598.147401 1155.935077 274.329942 146.993278 -249.801815 -209.813154 -45.263710 -145.579389 15678.044718 11437.103262 4531.187261 3467.239751 3470.692892 1589.771664 1148.471011 267.500454 141.054056 -254.656276 -213.316684 -47.224963 -146.701138 15677.127112 11433.741504 4522.039008 3456.940746 3461.562253 1580.098583 1140.187066 259.978394 134.634844 -259.826315 -216.990987 -49.162127 -147.776741 15675.624780 11429.154787 4511.142381 3445.835464 3452.150620 1570.049104 1132.080863 252.688904 128.604729 -264.562872 -220.276409 -50.714805 -148.581727 15673.362220 11423.334846 4499.383685 3435.440674 3443.888276 1561.083077 1125.615919 246.960664 124.177701 -267.842073 -222.428102 -51.439022 -148.845872 15670.190707 11416.505362 4488.309837 3427.901053 3438.631915 1555.116609 1122.590115 244.389330 122.771835 -268.496767 -222.622274 -50.888434 -148.307276 15666.035470 11409.197003 4480.106048 3425.778576 3438.413397 1554.284266 1124.853074 246.566558 125.747219 -265.450179 -220.133713 -48.732530 -146.789494 15660.951208 11402.282194 4477.393209 3431.634415 3445.045415 1560.559904 1133.902816 254.711751 134.062781 -258.012788 -214.550483 -44.882190 -144.281862 15655.174897 11396.940040 4482.825938 3447.451253 3459.664576 1575.311061 1150.455707 269.303270 147.947847 -246.154650 -205.956072 -39.572116 -140.989447 15649.160006 11394.531842 4498.536145 3474.028174 3482.352675 1598.916545 1174.134480 289.848764 166.722053 -230.633593 -194.989520 -33.343813 -137.314893 15643.574862 11396.391066 4525.549381 3510.562376 3512.021638 1630.621058 1203.452264 314.954815 188.909294 -212.854475 -182.697850 -26.886556 -133.745283 15639.252529 11403.564864 4563.366166 3554.639408 3546.694244 1668.748939 1236.201255 342.780175 212.717179 -194.400302 -170.148025 -20.736176 -130.644226 15637.091558 11416.577653 4609.904127 3602.747404 3584.149506 1711.239420 1270.164856 371.759972 236.762057 -176.348015 -157.901748 -14.928783 -128.009275 15637.924467 11435.309678 4661.988598 3651.426349 3622.993033 1756.617676 1304.212396 401.604186 260.992857 -158.458090 -145.457450 -8.714886 -125.286378 15642.388431 11459.062744 4716.285395 3698.481261 3663.359645 1804.648965 1339.027967 433.927080 287.291344 -138.628354 -130.897361 -0.451012 -121.304078 15650.846342 11486.837487 4770.366516 3743.744820 3706.836188 1856.241001 1376.826942 471.718437 318.901136 -113.408636 -111.360429 11.931948 -114.534782 15663.394609 11517.796500 4824.123300 3790.567732 3757.808353 1915.041725 1422.573422 520.052323 360.692798 -78.187031 -83.543803 30.264828 -103.671520 15679.971402 11551.594939 4878.780536 3841.257092 3816.749281 1981.085877 1478.172482 581.448092 415.699960 -29.626176 -45.180795 55.311203 -88.160973 15700.559226 11588.665927 4936.838546 3898.545249 3884.120543 2054.428859 1543.275907 653.691438 481.088753 29.871853 1.439028 84.655609 -69.247074 15725.318034 11629.942260 5001.217168 3964.666842 3960.081603 2135.088939 1617.681658 735.304424 554.309199 96.367380 51.087957 112.654209 -50.991438 15754.663979 11675.391228 5063.212273 4015.465761 4011.354575 2191.502948 1672.814122 801.488942 615.028043 153.952443 92.284382 131.048357 -39.519855 15789.128439 11724.723249 5123.346611 4065.677235 4069.181854 2252.392960 1720.909601 844.967564 643.796909 179.485767 106.843715 129.647312 -40.653408 15828.602636 11773.326464 5159.964393 4070.534426 4068.978948 2249.542923 1717.103036 852.735981 644.313627 175.201548 90.519672 102.062482 -60.630470 15872.356342 11815.922046 5161.570843 4037.988900 4051.359119 2236.434752 1687.942776 805.731894 576.710827 111.364062 35.932428 52.946549 -101.100811 15918.021236 11848.607940 5152.787253 4042.262220 4101.403957 2260.240279 1679.195650 771.606000 510.793644 32.687098 -33.275860 7.542649 -137.485593 15962.244194 11866.163488 5107.364539 3989.803535 4056.478619 2177.336425 1611.453797 735.789629 478.928152 -9.721558 -84.233721 -27.505244 -164.783696 16002.790032 11882.013046 5131.725310 4119.676225 4266.245741 2386.098108 1762.554100 750.772002 404.757612 -69.386119 -78.861548 15.833554 -168.204800 16038.998307 11901.423368 5195.363778 4269.146583 4362.606706 2321.996437 1708.356495 844.833078 602.564059 60.076023 -35.538317 86.607249 -105.224094 16079.534866 11954.613570 5358.830515 4518.068224 4578.793723 2543.972750 1983.172157 888.527680 486.919259 120.745837 113.296592 228.048296 -5.679547 16135.098425 12078.750000 5663.522054 4738.727488 4682.519180 2494.784026 1754.740578 950.846867 724.030577 191.270432 125.769011 232.323429 10.967928 16214.396907 12254.013312 5969.350941 5014.195031 4508.723460 2793.763455 2147.638863 856.159472 755.159659 139.404474 172.022500 461.916912 87.726626 16325.960750 12485.553574 5977.748766 4971.961934 5129.169142 2174.993566 1987.680859 519.756247 315.477058 412.617959 106.302657 99.337165 2.056400 16350.406970 13095.832996 6894.463714 4738.842537 5056.711946 2645.745714 2233.358045 1253.858240 763.947041 -156.470912 -243.570266 312.224673 -231.252709 15773.067194 13563.517851 8344.053033 4658.640608 5157.982880 3065.677804 1995.363218 742.034293 358.992885 -517.388555 26.876179 64.762019 155.487857 14026.644005 11740.293899 7024.739550 4194.954439 4232.328679 2809.151550 2473.101481 698.671293 519.370750 114.627341 -376.843131 -1008.966260 -550.551146 11520.121971 8475.711201 3912.257248 5404.635420 5103.437993 2662.043638 1816.016619 1164.665427 916.336920 -125.914479 -278.963047 -480.659933 2700.785989 10398.225412 7342.381736 2595.093111 2944.434019 1824.980985 1676.697868 643.340787 1439.776769 351.211202 138.002863 -385.981249 -41.574737 1567.228760
</DataArray>
<DataArray type="Float64" Name="Velocity" NumberOfComponents="3" format="ascii">