<VTKFile type="PolyData">
<PolyData>
<Piece NumberOfPoints="2177" NumberOfVerts="2177" NumberOfLines="0" NumberOfStrips="0" NumberOfPolys="0">
<PointData>
<DataArray type="Float64" Name="Pressure" format="ascii">
 12373.782781 12221.895522 11884.918880 11359.430564 10684.697715 9887.791378 8950.518032 7850.220160 6616.778440 5357.181075 4170.573072 3128.791854 2285.567944 1634.870000 1103.983655 631.900603 201.728431 -181.452941 -511.308379 -786.331277 -1009.288002 -1185.384552 -1320.833341 -1421.981182 -1494.827625 -1544.784782 -1576.598869 -1594.376823 -1601.529266 -1600.588191 -1593.436402 -1581.544412 -1565.942474 -1547.212273 -1525.563179 -1500.938115 -1473.118545 -1441.816731 -1406.750932 -1367.702336 -1324.554212 -1277.314803 -1226.126119 -1171.261190 -1113.112579 -1052.175207 -989.027384 -924.316929 -858.769276 -793.265574 -729.126212 -668.806383 -616.757788 -578.083210 -554.558031 -544.471678 12439.256833 12310.307330 11993.209311 11444.884923 10748.746192 9992.815047 9114.816304 7998.852268 6616.406372 5212.065274 3924.180510 2796.750210 1957.774984 1425.305313 1007.464141 594.982882 190.006599 -183.706716 -510.312617 -784.391438 -1007.232429 -1183.500890 -1319.208903 -1420.623112 -1493.700336 -1543.807835 -1575.639486 -1593.342305 -1600.834002 -1600.291502 -1593.310351 -1581.475333 -1565.891676 -1547.166124 -1525.515844 -1500.886822 -1473.062266 -1441.755683 -1406.686245 -1367.635755 -1324.487836 -1277.250839 -1226.066652 -1171.207910 -1113.066260 -1052.134284 -988.983521 -924.240800 -858.565349 -792.634961 -727.182976 -663.756352 -606.937267 -567.263485 -545.443524 -537.001998 12552.358243 12466.122955 12323.782480 12004.602968 11158.724400 10379.601531 9593.298788 8672.312120 6706.323599 5059.997340 3669.936376 2303.048287 1382.666341 1110.425705 878.991647 549.016514 175.517429 -186.852462 -509.608990 -782.543545 -1005.200511 -1181.617416 -1317.576562 -1419.253350 -1492.553626 -1542.776625 -1574.424185 -1591.428169 -1599.591233 -1600.112411 -1593.327848 -1581.522444 -1565.939180 -1547.212309 -1525.563508 -1500.938312 -1473.118634 -1441.816766 -1406.750943 -1367.702331 -1324.554181 -1277.314698 -1226.125775 -1171.260070 -1113.108937 -1052.163361 -988.988856 -924.191606 -858.361710 -791.938426 -724.841643 -654.170744 -584.395362 -546.471252 -529.710141 -524.454015 -539.758713 -522.040774 -515.099975 -492.008001 -485.545233 -482.097778 -441.409385 -439.858094 -438.460384 -397.135353 -396.709709 -396.221373 -356.550419 -356.456815 -356.268909 -319.167540 -319.172248 -319.080759 -284.792430 -284.826076 -284.765684 -253.305028 -253.346204 -253.296785 -224.588817 -224.630746 -224.586276 -198.514729 -198.555178 -198.513946 -174.940205 -174.978391 -174.939963 -153.712399 -153.748038 -153.712325 -134.672176 -134.705175 -134.672153 -117.657842 -117.688200 -117.657835 -102.508342 -102.536113 -102.508339 -89.065860 -89.091134 -89.065860 -77.177857 -77.200747 -77.177856 -66.698590 -66.719229 -66.698590 -57.490204 -57.508735 -57.490204 -49.423441 -49.440012 -49.423441 -42.378033 -42.392795 -42.378033 -36.242856 -36.255958 -36.242856 -30.915871 -30.927458 -30.915871 -26.303916 -26.314129 -26.303916 -22.322381 -22.331352 -22.322381 -18.894797 -18.902651 -18.894797 -15.952370 -15.959225 -15.952370 -13.433479 -13.439442 -13.433479 -11.283155 -11.288326 -11.283155 -9.452559 -9.457030 -9.452559 -7.898463 -7.902316 -7.898463 -6.582747 -6.586058 -6.582747 -5.471918 -5.474755 -5.471918 -4.536653 -4.539076 -4.536653 -3.751367 -3.753430 -3.751367 -3.093814 -3.095565 -3.093814 -2.544714 -2.546196 -2.544714 -2.087417 -2.088666 -2.087417 -1.707585 -1.708636 -1.707585 -1.392916 -1.393797 -1.392916 -1.132883 -1.133619 -1.132883 -0.918509 -0.919122 -0.918509 -0.742159 -0.742668 -0.742159 -0.597361 -0.597781 -0.597361 -0.478641 -0.478987 -0.478641 -0.381387 -0.381670 -0.381387 -0.301721 -0.301952 -0.301721 -0.236401 -0.236588 -0.236401 -0.182723 -0.182874 -0.182723 -0.138453 -0.138574 -0.138453 -0.101764 -0.101862 -0.101764 -0.071193 -0.071272 -0.071193 -0.045606 -0.045672 -0.045606 -0.024186 -0.024244 -0.024186 -0.006428 -0.006483 -0.006428 0.007844 0.007786 0.007844 0.018444 0.018377 0.018444 0.024771 0.024686 0.024771 0.025731 0.025620 0.025731 0.019639 0.019489 0.019639 0.004085 0.003883 0.004085 -0.024225 -0.024498 -0.024225 -0.069675 -0.070039 -0.069675 -0.137968 -0.138450 -0.137968 -0.236422 -0.237053 -0.236422 -0.374296 -0.375113 -0.374296 -0.563176 -0.564224 -0.563176 -0.817423 -0.818755 -0.817423 -1.154665 -1.156343 -1.154665 -1.596363 -1.598459 -1.596363 -2.168426 -2.171023 -2.168426 -2.901886 -2.905080 -2.901886 -3.833629 -3.837526 -3.833629 -5.007162 -5.011883 -5.007162 -6.473424 -6.479103 -6.473424 -8.291607 -8.298392 -8.291607 -10.529989 -10.538042 -10.529989 -13.266738 -13.276232 -13.266738 -16.590670 -16.601789 -16.590670 -20.601932 -20.614872 -20.601932 -25.412566 -25.427527 -25.412566 -31.146918 -31.164106 -31.146918 -37.941851 -37.961472 -37.941851 -45.946714 -45.968968 -45.946714 -55.323012 -55.348088 -55.323011 -66.243735 -66.271809 -66.243734 -78.892304 -78.923524 -78.892300 -93.461067 -93.495549 -93.461054 -110.149327 -110.187142 -110.149285 -129.160866 -129.202011 -129.160729 -150.700948 -150.745292 -150.700504 -174.972858 -175.019964 -174.971416 -202.174140 -202.222718 -202.169457 -232.493146 -232.539295 -232.477934 -266.107807 -266.139286 -266.058404 -303.192904 -303.170279 -303.032479 -343.957074 -343.749763 -343.436116 -388.775802 -387.938272 -387.085480 -438.865570 -435.637310 -433.354124 -495.329543 -483.288653 -477.957635 -525.569808 -505.932085 -497.266256 17799.325292 18704.121841 20106.554565 20146.895001 22089.808520 21486.250180 23495.567213 26767.916546 23007.081703 24221.430143 23950.680204 21204.166008 21615.178741 21563.701120 19952.198621 19494.069840 20685.459625 16176.861995 12595.808122 13939.606736 13210.441463 15118.020812 9795.046570 8827.228269 6082.296371 1173.507400 239.634744 -166.369704 -528.278436 -893.927334 -1211.524007 -1443.033726 -1587.972664 -1666.884555 -1701.946484 -1708.636589 -1695.763259 -1668.049190 -1628.252775 -1578.295564 -1519.738246 -1453.958897 -1382.219644 -1305.694538 -1225.482535 -1142.612756 -1058.043115 -972.647608 -887.172458 -802.087825 -717.156931 -628.232722 -549.500573 -515.823514 -501.299446 -495.952570 17475.885697 17898.993230 18748.590961 20652.062413 21219.804983 19583.399549 23465.117134 25652.940941 22806.595541 22384.032281 21989.414381 20331.414460 20378.525951 20029.093636 18932.731029 18543.786222 18011.787386 16645.510829 15164.492197 13808.097807 12079.719873 9935.200668 6891.787712 4359.368791 2411.082614 1038.139255 316.777165 -109.609790 -501.434996 -883.109166 -1207.243324 -1441.110008 -1586.950535 -1666.274763 -1701.546363 -1708.345563 -1695.532447 -1667.856938 -1628.089829 -1578.157578 -1519.622724 -1453.864112 -1382.144296 -1305.637753 -1225.444328 -1142.595774 -1058.058489 -972.734204 -887.460346 -803.017050 -720.181757 -640.310042 -571.165227 -530.758687 -511.015800 -503.522212 17186.476368 17384.915903 17695.204342 18348.700188 19056.014190 19863.690820 21572.339253 22117.074168 21259.966436 20475.139016 19758.599555 19002.534315 18555.595520 18119.312873 17551.608491 17079.508486 16547.072304 15786.312843 14679.996568 13077.447951 10973.714749 8501.531917 5887.128182 3664.706496 2050.581148 1019.307080 400.186117 -51.469306 -474.291500 -874.366917 -1206.236014 -1442.193371 -1588.063649 -1667.016611 -1702.007904 -1708.657146 -1695.768871 -1668.050499 -1628.253046 -1578.295625 -1519.738297 -1453.959037 -1382.220096 -1305.696011 -1225.487331 -1142.628371 -1058.093957 -972.813161 -887.711376 -803.845215 -722.819247 -647.959112 -585.563353 -542.830411 -518.990883 -509.316084 12622.504311 12485.589481 12549.167036 12880.936874 11888.125075 11011.111950 10132.026831 9470.130164 6915.561612 5135.459810 3878.813132 1893.891053 623.858730 956.954902 839.431868 536.168631 171.271631 -188.225384 -510.021420 -782.639044 -1005.194893 -1181.583082 -1317.537452 -1419.215705 -1492.513089 -1542.708163 -1574.176880 -1590.583214 12833.955224 12636.263961 12729.225537 13333.884312 13231.185584 13104.420456 13190.387933 12798.327106 12899.217358 12396.557883 13997.311870 11034.808363 13035.033984 14467.475614 13375.034298 10068.796659 13060.610410 11261.345039 12010.129018 11321.065646 15558.154874 10619.946224 12749.297409 12456.576045 12358.052351 10411.452229 1582.869552 5728.399647 13217.033317 13410.534682 13411.213896 12594.202467 12428.436313 10888.733529 11676.230276 8227.447268 11870.182459 5601.156111 10264.098365 12598.150211 11243.006882 14551.174625 11341.375966 12552.291788 12858.063139 6010.074140 13075.053736 10618.987747 12734.485810 10673.747752 12829.213373 10273.519348 10714.348437 5541.847077 8756.918314 8437.489341 13644.537032 13588.506029 12936.658821 11330.923693 9523.113295 11952.401489 9635.528703 5678.476376 13859.233809 12917.596208 12447.437365 10722.433270 12991.095073 8093.379017 12250.826987 6060.618184 9981.367124 2946.779163 9733.391258 11359.817294 8959.624797 11110.037504 12706.911914 9522.584356 7460.220249 11312.838157 9895.677799 4769.620933 13931.861681 13357.228459 11594.618062 13090.105585 9151.515565 11431.142940 12208.704525 12962.471481 12226.264500 10648.054901 12897.553984 2773.545032 6905.192565 6128.772316 10176.953024 12307.367733 9483.075420 13783.381389 10090.424174 11847.397745 6301.113567 13173.750338 4519.970918 5899.774052 2872.311031 1259.919073 7857.084230 2328.623187 14100.061141 12500.355663 9810.931168 12362.206722 14223.722400 10043.530993 14219.956250 11328.527519 11707.618892 6965.803796 5594.007137 9267.278778 8135.681366 8367.917388 8337.745268 5949.649857 3850.899386 2011.176644 4437.968327 3423.356143 7108.186318 2686.820199 11060.360038 7360.996299 4446.694231 7126.972663 3901.074107 3539.479948 14199.398476 13468.330237 11697.483190 14030.159790 10411.443857 7022.265779 10883.297090 7897.568960 10165.760656 8313.760814 10888.521359 10602.939865 9034.976414 6496.951018 10597.104153 7815.383334 8749.701615 4213.417831 10635.690497 8171.511247 12811.764074 4252.020982 2489.645207 7088.726535 620.006978 2204.099421 2019.130359 2947.575332 14187.943288 14532.533042 13999.258500 9381.764735 13046.923596 15204.640500 11095.486556 8017.516727 12554.200124 5281.025051 5715.086059 6626.872627 12138.460484 7787.183496 14950.499916 8923.379935 3636.958551 9437.553019 8557.355809 7257.366563 6161.749319 10726.836636 3412.099065 9231.636704 8480.296861 7275.931170 3906.694624 2466.311163 14022.404800 13686.398548 12462.505945 13471.569949 12270.910784 12932.985239 11499.268912 14705.462803 13587.306952 11874.053990 12139.985331 13302.708294 10715.532868 6052.973630 4618.912030 13127.435349 9621.436426 10911.973435 3803.843331 5232.081134 6279.291743 3783.177920 5903.224227 3009.487575 7301.901170 4114.336630 4571.314137 1487.691681 13844.054618 13079.495774 11855.433155 13864.086614 14545.060864 14370.371833 11951.714705 10493.797867 10122.824810 8124.069548 10538.270267 3950.506648 8936.288984 10628.393286 4559.176060 6612.433975 6624.513869 7426.279866 6580.777816 11474.536010 6692.190679 4671.554589 4535.907763 7211.047087 4011.788818 2210.505872 2544.644810 4910.527738 13757.893042 13837.463955 12945.124100 14507.707619 14387.384766 12118.575678 9244.119301 12729.925242 5317.402667 14115.726392 5735.936314 8696.407450 6960.493366 3525.551431 8636.826342 8307.396922 4999.243434 8647.320983 6866.593756 6441.492935 7093.492500 3056.346065 8681.094456 6955.694536 3803.429358 5831.866315 6350.484390 4269.908229 13650.569202 13699.975631 13591.441222 13750.074878 11511.280218 14095.651770 11583.125273 11314.781919 10075.444888 10182.057183 6485.150314 7295.763748 11258.734819 9738.168774 8548.926289 7577.578475 9610.485895 5665.996026 5116.341059 6042.084958 6888.801252 10238.507049 3839.191270 5944.973608 5421.859364 5711.107934 3969.683607 1793.701345 13583.462169 13361.181023 12474.818155 14910.308501 12932.321031 10005.358313 7912.024664 10446.813532 8414.340742 9269.647186 7624.278010 11734.075844 11112.223566 1970.647275 6670.652129 4488.434311 8981.201313 5588.991994 5399.580008 8237.111163 10331.003371 5997.758816 10603.312264 6679.562249 6205.585374 3724.505777 5435.257271 6108.476824 13636.789639 13986.904920 13394.273778 14279.506575 11963.501611 12296.795824 10876.623545 11055.937207 5991.419069 13984.462276 7753.249614 5268.425995 5397.253942 2113.459344 4402.276785 7370.615750 7256.647600 3388.200865 5265.752947 5279.199213 4152.779557 4639.535477 4020.676159 8113.851223 5294.029631 2565.745259 8176.497959 3143.462242 13627.232972 14297.945149 13821.907530 15149.545198 15626.841986 14253.213326 14308.431182 12149.142914 11967.818821 6876.727054 8848.638898 5802.375329 3707.131414 4034.664580 4767.844495 2622.433402 3517.062296 3699.254073 7879.363115 5092.968594 3507.965184 3439.756470 5129.602956 4301.823539 4506.116829 3348.999354 3492.921697 4554.495806 13578.721869 13788.170067 13174.640355 14130.128610 13645.126982 11742.341423 14402.562189 8018.141935 9801.245758 8948.390305 8636.944390 2311.501274 2921.050941 13631.535043 12930.587824 11395.248548 13955.645815 13612.236964 12614.777176 13238.738547 9443.377528 11225.653972 6110.730620 3069.078915 4168.016615 2816.540705 13758.607736 12938.095719 10998.400552 14329.769397 11427.889976 11194.159890 3895.715969 12654.808273 9400.627453 4214.758953 3929.817239 7355.500704 8115.309078 13799.012197 13200.053299 12145.974757 13749.918190 13636.450363 10697.405093 8622.835809 10797.705705 2497.052529 6173.089502 2843.482605 4010.766001 3782.117993 13684.194109 13324.889889 13260.479390 14091.086051 12602.686849 12028.494771 9600.552331 3966.892583 5867.629518 8258.855969 9795.071560 10296.037007 3809.692890 13629.668896 13554.690282 13611.682872 13455.894751 14265.386710 12455.184621 9481.229925 13780.029613 1821.268437 3061.102354 8041.874173 2341.606510 3678.312187 13799.940745 14015.065708 14168.900092 12943.594282 11842.732167 10120.941703 6704.231238 8023.283531 5800.878031 7347.045317 9224.201311 2608.317982 2056.532720 13997.089810 14784.719736 16117.247030 13547.508912 12006.857197 4639.409210 3462.913983 5749.929923 5030.525042 10793.525105 5586.817195 5516.469839 5752.953617 13924.675063 14040.515945 14110.543890 13489.070026 11807.269196 8882.081961 11025.508240 8182.561068 7770.340057 7088.265400 4856.671343 1710.492709 6589.170618 13673.467251 13164.436423 12841.648352 14738.754098 14197.443839 12788.768935 10915.622327 7770.347378 6577.746841 8402.674271 5467.697535 3841.079874 11234.240119 13412.188835 12246.988969 11402.790587 13978.029696 10876.789095 12033.051583 8777.884041 6173.383438 7164.936381 12214.442669 5450.646150 5688.479165 16484.092428 13531.728163 12359.363691 11718.154061 14696.708402 13382.579293 11293.156473 12677.535773 10925.553934 6674.147279 7203.880254 9854.165131 2230.726082 5793.599323 13931.029771 13874.774099 14649.887809 15840.573681 14367.828613 13844.355289 9243.902894 11630.867720 4964.207106 9134.624368 9709.788748 3767.248073 7055.669970 14153.252227 14652.676016 15428.870412 14321.487698 11268.321993 10298.481930 14781.902077 10918.080870 5137.299708 10683.598833 2719.260922 4469.586930 3274.884954 14253.251262 13875.121393 13326.653046 15736.401309 14046.066045 12408.155652 13990.409078 13167.421877 8560.317877 12515.398993 3319.314004 7049.550071 3412.598658 14383.379003 13428.047623 11759.759291 13404.136936 12575.233251 14012.829630 11344.093561 14182.412932 8828.559834 9996.606957 3921.862397 4121.007753 6562.368295 14353.342745 12859.420535 10625.663314 8275.096555 12171.487134 10183.450588 11526.930310 12400.043414 6438.107646 7315.841832 4296.182883 3476.964319 4771.505707 14278.374070 13490.115303 12607.462927 14066.570423 11706.872377 12386.158323 10610.978940 10388.911995 8021.010392 11468.762924 6813.151199 2504.099201 13105.013435 14444.600968 14752.764252 14623.809403 10908.306492 12700.706682 12319.118444 10585.406283 10417.635715 10594.123187 6493.145302 10045.947996 10644.767634 2956.432436 14701.476653 15051.693527 15162.600480 13709.957799 15135.051357 12566.570743 12401.003740 7161.125633 9385.110717 10137.715905 11208.697293 6114.637554 -6166.422574 14756.890268 14890.262269 14430.985961 14372.063424 13385.325398 13646.729239 10340.154947 6713.701882 13005.028583 6611.776006 2932.205478 3471.230793 2691.811449 14820.694442 15004.103369 14628.031543 14809.007804 13302.403508 15224.999847 6391.750294 9697.565196 8867.115399 4609.914744 7465.621582 5990.056424 8404.028882 15062.882051 15815.526348 16057.394102 14188.578374 14682.101163 12994.005547 10247.154324 8207.448200 7914.000973 6536.088424 6853.020623 6626.313952 19157.245611 15264.890983 15519.766116 14706.321274 13760.067556 14549.213840 10048.653046 11685.424085 10733.380434 5663.774380 4670.139277 3833.328618 6417.412082 2673.380449 15175.932422 14964.385567 14004.668242 15198.117197 13990.058132 13811.121657 7729.407974 11696.150544 7052.163730 7960.272568 9285.308795 6640.643579 6246.494018 14845.166088 14063.000679 12354.301252 14867.560653 14917.921848 7245.165996 9751.127136 10077.385195 12861.559794 10722.921634 8016.498898 8681.089926 7478.780151 14725.543208 14864.596221 15590.981692 15770.285246 13758.074283 13753.334508 5314.776033 15265.462041 8147.310256 9614.754919 5998.390849 5064.196951 27067.050022 14770.555731 15047.415439 15661.300110 15123.677771 15143.061401 14265.272993 4489.722174 11996.740704 4140.841909 7793.785740 11121.763722 8847.739258 6636.829768 14566.743888 14787.351387 16109.773757 15486.326863 13042.498297 12165.585162 12690.901039 13034.095663 6825.805203 10987.096534 9537.696415 4039.715535 1667.657850 13965.906375 13695.622364 14378.375591 17396.440148 16724.807763 14032.512441 15236.188868 13341.760946 7214.340029 7966.221454 6450.351900 6636.997189 2089.537842 13660.581275 13077.129525 14472.158096 16253.516221 16337.212697 4829.668830 9851.631883 11746.003237 12632.360948 11248.756118 11442.170023 7283.779843 8471.517129 13912.192273 13811.506273 15271.732296 16294.905468 11746.325816 8248.845509 11246.657952 14480.865276 8024.112839 6935.828927 8130.419044 9619.314335 14030.443186 14336.583056 14985.365815 15899.092524 14728.529008 15110.552340 13454.705901 9945.554565 10869.499069 10918.131528 6840.484324 4917.106880 13112.019143 5341.896248 14570.946888 14997.365370 15757.640342 14481.200412 15297.615041 14761.875241 14544.062809 10153.282576 10092.042408 12406.496551 8436.870122 9335.679930 7317.058766 14692.620049 14993.797036 15877.189213 16304.571424 15269.185192 12551.561873 13549.955834 13680.649487 11174.843073 12082.643594 16420.938249 5670.976309 9009.982164 14933.925929 15192.153381 15858.024384 15643.236585 17244.846591 13518.242123 15735.754251 12577.743254 8927.442543 7711.240735 7598.730049 9151.446518 10607.653489 15342.661348 15337.941397 15257.358376 16386.061415 16083.846157 15214.342176 13934.124584 15498.012090 10710.814579 11072.949947 7273.122693 10611.633922 6599.282404 15694.528589 15327.355431 14698.828220 16121.581108 12519.105273 14626.101643 16755.187428 9502.645210 13273.600226 7673.736388 7707.904847 11894.786340 6257.376843 15812.616491 15693.731408 15263.245529 17480.240608 13913.120894 15273.677224 9196.545118 6993.135620 7824.274183 12416.540378 9536.124032 3658.391049 19394.249843 15826.724069 16640.076184 17192.594524 15109.586627 14093.703543 12757.107227 13449.509351 10094.787872 12577.985496 10571.601563 8865.241989 5948.585283 6541.038987 15912.991333 16902.478451 17002.639857 16688.963876 18340.198405 13795.760577 15600.832791 13205.843542 8653.936447 11441.080025 10704.415754 9765.741014 9590.359029 15983.204264 17178.290076 16172.044696 15581.586385 16099.726459 14855.598238 12272.530447 12286.992443 16447.369308 12862.792807 11386.386339 10328.402207 11172.341647 15767.462411 16498.133216 14955.487599 16617.699233 15966.476891 18498.931987 15338.241196 14728.934918 16561.231307 10433.267194 10519.479922 13919.734412 14966.707030 15534.381304 15592.281957 14748.943378 17791.986733 14679.088154 13042.244923 14075.795322 11693.067835 10989.412048 13063.463806 9430.937920 6488.961887 6275.309164 15634.002244 15503.049182 14657.001339 18304.658181 16586.683579 15265.220031 14349.335011 15305.518616 14176.578515 12819.027027 9356.967689 -311.530887 3194.938963 15970.645127 15939.080375 14859.269610 17655.337084 16308.719694 17095.097639 13329.735652 18129.572771 13548.010300 14510.375760 9286.908217 13259.733083 8446.310548 16256.209184 16766.643043 18941.164232 16867.693347 16474.048673 13580.983344 12219.702268 13738.251975 14958.518209 12678.767898 7344.244268 14226.685386 -812.766772 16304.880754 16284.076147 17072.922824 19260.922894 17823.493181 11885.450288 17007.225315 13496.919861 13854.455629 14500.471412 9585.846572 19474.618725 9823.864876 16432.437114 16775.147872 18154.795246 18363.453419 20458.460137 16713.057943 11847.591280 15321.971264 14182.405013 15478.303777 11470.810665 7405.263030 9067.014445 16694.914214 16790.144387 18191.237470 20598.672159 18612.156027 17532.365656 17700.501817 16790.377293 15021.188694 18212.813531 12054.523665 14946.224641 16669.763378 16960.901958 16734.953346 17783.763901 19429.489596 15170.489233 16768.351354 16874.785663 17752.693130 10850.685235 8057.749415 17411.025045 12723.085211 15142.969165 17140.013825 16220.805702 15431.535929 19285.822477 19362.867320 18135.823345 16295.735561 15380.915258 17655.088459 15252.933845 14312.295481 11660.605430 3727.877396 17434.645622 16335.851690 15931.842745 20416.991164 20076.348193 16867.998493 17884.092049 19021.777659 17779.196325 14648.076926 14465.419653 14684.322944 29019.511131 17665.299569 17287.719967 16455.626352 20840.722228 19602.522319 17565.425311 14327.056486 19534.851451 15372.899834 9766.898985 14621.340941 13560.851760 10587.207370 17648.925916 17835.447760 18430.821730 20614.268830 20500.254281 18146.301119 14513.531194 19977.027142 19045.959158 15595.490635 16883.719804 7985.669246 14141.957388 17832.829139 18614.094643 19686.290591 21252.793549 18126.302609 19355.494065 17670.885514 17943.163839 14828.519113 16165.614715 13601.353206 19047.334688 -4613.307087 18299.591006 19742.475988 21762.134404 20246.769828 18787.975586 19490.781889 17374.201498 19772.053645 14590.038735 13101.690684 16894.786151 8013.207912 10115.431751 18640.629476 18595.920895 18827.221427 19915.855987 20356.626962 15950.881560 17703.361649 17909.157899 17748.845237 14527.458541 8819.710207 18060.662598 15879.256888 19085.237375 18391.326628 17083.599345 20545.445228 20065.825704 18547.603686 12541.291526 14953.216786 6635.281777 9733.467337 11311.055476 16775.786694 13484.363635 19614.140943 20025.934703 20158.702561 19841.079984 20484.140245 20535.769949 18100.530425 15008.167223 18280.170962 14860.650093 13001.075969 14040.804927 10742.069462 19769.428210 19807.350269 19367.601924 21321.110609 18655.341770 15967.214748 14710.363071 18982.850109 20509.295143 16481.098687 7784.675286 12529.156885 47622.451640 19734.860548 19770.146350 19810.868519 18969.145166 19963.785901 23933.268046 18217.738208 17598.575253 16959.952130 14992.378628 9767.265631 18851.804892 47934.618235 19700.928165 20279.330472 20925.473496 19417.008717 22582.867778 22683.453383 17563.677157 19915.909124 22662.852671 11229.504279 13151.494907 5997.501037 15619.471350 19854.071386 19365.666632 18503.267761 21791.251485 21713.045647 14653.515845 16003.646790 19533.213414 9420.283447 20316.394175 12873.802227 12824.667754 15640.545543 20234.141285 19313.236649 18689.406805 22376.649059 20058.318241 17733.137337 20173.951885 21852.462081 17792.553744 22742.197098 15593.239446 12156.885891 14032.243628 20305.516940 19572.388503 18995.432953 20415.405448 21869.699320 19241.919199 16267.997413 20534.572900 19727.646777 19392.340422 16835.784966 11033.386732 12962.502671 20258.041077 19943.269596 20720.510958 23384.718486 17347.588327 23539.523510 15958.742494 17980.466037 16765.562392 14109.158107 12686.445622 12376.861200 10632.739698 20305.986192 20352.857397 20671.130568 21696.982048 21742.518293 18268.200328 20320.708998 20103.224767 16608.894049 13978.707444 13585.119372 15470.504630 -9105.256484 20289.281938 20302.706748 19719.192745 20820.594492 20070.048618 19989.975961 23738.427975 22481.220901 17407.954466 23865.758841 13449.905322 14264.407995 17904.167173 20221.385314 21647.969534 23928.109633 21835.050557 21462.041734 19906.566512 16991.195247 18224.063919 19601.035259 22207.038451 9460.788482 19298.183087 10821.653945 20002.947123 22104.749004 23890.629926 21829.821629 18742.503829 22990.697639 19288.327584 19855.511798 22352.211116 23620.873971 9395.198766 8387.225473 7895.984671 19744.277831 21353.628331 22763.050012 21858.399449 21416.858656 23052.197526 20115.504332 23630.042822 21911.745901 28274.759095 20060.534946 17487.406485 14591.622870 19533.246577 18478.794042 17619.058975 24321.457376 20903.300006 21085.924193 22028.200834 20260.642731 16599.949073 12849.163324 14869.757404 14844.356404 5398.986787 19477.652939 19249.443246 19084.067633 19568.358675 21464.035398 24053.284979 17065.308191 20459.697113 12101.160305 17989.673965 18534.502678 16109.046512 15800.320693 19480.466742 21321.964703 23275.178595 20340.218187 20951.435567 20721.463726 23232.771651 16754.361233 19035.594435 19907.950143 20423.524331 16957.033336 18718.655794 19448.740576 21198.542863 23394.639966 17461.137349 22661.123456 26237.869927 19377.873025 22390.100204 18673.799534 20516.994679 12384.499781 12311.307990 15708.997624 19278.395892 19275.436711 20484.556489 20934.743689 20297.816428 21865.972993 23481.376028 19962.844151 22804.866944 15138.580932 14537.331756 11019.179442 10471.907940 18999.941626 16814.600876 15456.103322 19054.632323 22434.749734 23266.995006 22186.715205 18760.618421 21682.881454 21681.481957 18259.676718 10922.688187 20437.225391 19062.013233 15652.885524 12361.195176 17445.253070 23240.772594 23510.688310 24383.327989 19176.590872 23236.789789 18790.667744 20879.188029 16953.792250 20105.034106 19385.046191 19500.557816 19684.460157 20533.652065 23911.037676 22150.756914 20889.903752 20983.262125 19163.546712 13904.741326 24705.030189 23105.672910 4920.996738 19414.750967 20639.629966 21954.058772 32973.353273 22273.820454 25412.101900 21427.777883 22061.920837 23297.790923 23624.189053 21190.508864 23181.587100 19125.065837 19534.657397 19609.075930 19103.490796 23161.331078 20901.978645 26627.959146 21908.162676 21366.603378 23044.837107 21700.329474 22382.563122 19063.477698 12024.041859 19777.001751 21161.552647 20784.750418 19312.641067 22575.903761 21345.328027 21945.514159 19586.430027 20828.383283 26594.768586 22612.581138 21389.855894 11599.568755 19298.590017 21255.791490 21808.629963 20828.215035 24776.212666 20736.981921 20807.243324 22298.008239 19908.604399 21778.409870 21896.664280 19077.669728 23080.426142 18305.202261 19839.274800 21002.754127 24581.853241 24794.738782 21569.768311 24609.131731 22225.324525 21688.665893 20598.883929 21714.957498 20846.949701 21263.849899 17799.325292 18704.121841 20106.554565 21969.884317 17453.147656 20860.315668 20689.268665 21534.687288 23291.065738 21007.046863 22488.645430 21633.323257 18500.464905
</DataArray>
<DataArray type="Float64" Name="Velocity" NumberOfComponents="3" format="ascii">