<VTKFile type="PolyData">
<PolyData>
<Piece NumberOfPoints="2177" NumberOfVerts="2177" NumberOfLines="0" NumberOfStrips="0" NumberOfPolys="0">
<PointData>
<DataArray type="Float64" Name="Pressure" format="ascii">
 10623.344762 10319.608656 9705.298569 8849.833988 7849.455936 6746.900550 5588.435304 4469.413846 3440.499490 2314.262365 936.896549 -273.995622 -782.861986 -608.389552 -111.184857 228.490087 -44.710499 -826.714673 -1444.575749 -1706.947001 -1984.964306 -2681.459854 -3634.483433 -4283.681830 -4485.566498 -4396.870200 -4172.169773 -3887.742736 -3565.070825 -3218.852303 -2870.387320 -2534.788497 -2219.369352 -1927.489558 -1660.643058 -1419.279667 -1203.138162 -1011.434231 -843.001293 -696.404603 -570.031655 -462.161634 -371.018768 -294.814848 -231.784966 -180.218710 -138.487472 -105.067841 -78.561910 -57.719229 -41.476492 -29.039277 -19.970393 -14.006905 -10.645050 -9.236372 10639.389105 10347.192802 9720.932141 8861.247352 7892.587937 6748.390369 5453.379511 4243.562227 3427.167584 2549.405078 720.851169 -999.129157 -1339.716994 -797.409127 82.727679 850.363189 509.179910 -1162.232954 -1821.916451 -1696.177734 -1511.736418 -2127.211562 -3863.244260 -4696.595187 -4715.267992 -4508.124483 -4236.405759 -3940.612527 -3603.515437 -3235.884493 -2876.711871 -2537.119743 -2220.405655 -1928.118791 -1661.141250 -1419.727422 -1203.556121 -1011.825701 -843.365311 -696.739718 -570.336872 -462.436552 -371.263535 -295.030088 -231.971696 -180.378156 -138.620556 -105.173616 -78.632552 -57.724643 -41.320401 -28.536420 -19.002743 -13.116641 -10.063109 -8.855624 10722.890451 10464.908737 9850.454426 8988.617391 8184.120541 6804.846134 5219.061998 3561.867932 3343.947361 3810.273153 362.397777 -3001.501618 -2317.243248 -1066.220705 367.432153 2234.331929 1713.648650 -2194.739852 -2738.850213 -1656.299385 -364.346258 -1095.865168 -4655.495935 -5486.525639 -5013.940484 -4643.489628 -4317.819281 -4033.418000 -3687.412719 -3260.319875 -2883.064553 -2538.727102 -2220.591240 -1927.868922 -1660.760856 -1419.316247 -1203.149521 -1011.437759 -843.002389 -696.404943 -570.031758 -462.161659 -371.018752 -294.814759 -231.784654 -180.217647 -138.483862 -105.055598 -78.520445 -57.578688 -41.006046 -27.347034 -16.513183 -11.325192 -9.075918 -8.227572 -11.189769 -8.933958 -7.924274 -7.622080 -6.855408 -6.366512 -4.933857 -4.751823 -4.575216 -3.284023 -3.236284 -3.177316 -2.187384 -2.176672 -2.155870 -1.448394 -1.447398 -1.439086 -0.950560 -0.951741 -0.947814 -0.617533 -0.618882 -0.616724 -0.396917 -0.397985 -0.396679 -0.252349 -0.253108 -0.252279 -0.158683 -0.159197 -0.158663 -0.098690 -0.099029 -0.098684 -0.060706 -0.060925 -0.060704 -0.036932 -0.037072 -0.036932 -0.022223 -0.022311 -0.022223 -0.013226 -0.013281 -0.013226 -0.007786 -0.007819 -0.007786 -0.004533 -0.004554 -0.004533 -0.002611 -0.002623 -0.002611 -0.001487 -0.001494 -0.001487 -0.000838 -0.000842 -0.000838 -0.000467 -0.000469 -0.000467 -0.000258 -0.000259 -0.000258 -0.000140 -0.000141 -0.000140 -0.000076 -0.000076 -0.000076 -0.000040 -0.000041 -0.000040 -0.000021 -0.000021 -0.000021 -0.000011 -0.000011 -0.000011 -0.000006 -0.000006 -0.000006 -0.000003 -0.000003 -0.000003 -0.000001 -0.000001 -0.000001 -0.000001 -0.000001 -0.000001 -0.000000 -0.000000 -0.000000 -0.000000 -0.000000 -0.000000 -0.000000 -0.000000 -0.000000 -0.000000 -0.000000 -0.000000 -0.000000 -0.000000 -0.000000 -0.000000 -0.000000 -0.000000 -0.000000 -0.000000 -0.000000 -0.000000 -0.000000 -0.000000 -0.000000 -0.000000 -0.000000 -0.000000 -0.000000 -0.000000 -0.000000 -0.000000 -0.000000 -0.000000 -0.000000 -0.000000 -0.000000 -0.000000 -0.000000 -0.000000 -0.000000 -0.000000 -0.000000 -0.000000 -0.000000 -0.000000 -0.000000 -0.000000 -0.000000 -0.000000 -0.000000 -0.000000 -0.000000 -0.000000 -0.000000 -0.000000 -0.000000 -0.000000 -0.000000 -0.000000 -0.000000 -0.000000 -0.000000 -0.000000 -0.000000 -0.000000 -0.000000 -0.000000 -0.000000 -0.000000 -0.000000 -0.000000 -0.000000 -0.000000 -0.000000 -0.000000 -0.000000 -0.000000 -0.000000 -0.000000 -0.000000 -0.000000 -0.000000 -0.000000 -0.000000 -0.000000 -0.000000 -0.000000 -0.000000 -0.000000 -0.000000 -0.000000 -0.000000 -0.000000 -0.000000 -0.000000 -0.000000 -0.000000 -0.000000 -0.000000 -0.000000 -0.000000 -0.000000 -0.000000 -0.000000 -0.000000 -0.000000 -0.000000 -0.000000 -0.000000 -0.000000 -0.000000 -0.000000 -0.000000 -0.000000 -0.000000 -0.000000 -0.000000 -0.000000 -0.000000 -0.000000 -0.000000 -0.000000 -0.000000 -0.000000 -0.000000 -0.000000 -0.000000 -0.000000 -0.000000 -0.000000 -0.000000 -0.000000 -0.000000 -0.000000 -0.000000 -0.000000 -0.000000 -0.000000 -0.000000 -0.000000 -0.000000 -0.000000 -0.000000 -0.000000 -0.000000 -0.000000 -0.000000 -0.000001 -0.000000 -0.000001 -0.000001 -0.000001 -0.000002 -0.000002 -0.000002 -0.000004 -0.000004 -0.000004 -0.000007 -0.000007 -0.000007 -0.000014 -0.000014 -0.000014 -0.000026 -0.000026 -0.000026 -0.000049 -0.000049 -0.000049 -0.000090 -0.000091 -0.000090 -0.000165 -0.000165 -0.000165 -0.000297 -0.000298 -0.000297 -0.000530 -0.000532 -0.000529 -0.000937 -0.000939 -0.000932 -0.001640 -0.001639 -0.001622 -0.002848 -0.002829 -0.002785 -0.004924 -0.004829 -0.004698 -0.008532 -0.008143 -0.007732 -0.015093 -0.013511 -0.012241 -0.027641 -0.021135 -0.017853 -0.037657 -0.025840 -0.020683 10423.835218 11736.129986 13638.093727 11393.776170 11753.858093 11146.336124 11062.643186 9238.074501 11478.470679 9149.699888 4964.583249 8174.185914 8364.008408 6910.374285 8260.253455 4681.176615 1425.525741 340.037053 -134.792966 -351.708608 -448.158567 -482.182765 -480.787654 -458.056068 -422.444076 -379.680392 -333.885640 -288.030534 -244.181974 -203.686964 -167.329549 -135.464503 -108.128658 -85.132726 -66.136869 -50.712304 -38.390224 -28.698934 -21.190198 -15.456161 -11.138500 -7.931593 -5.581392 -3.881517 -2.667776 -1.812032 -1.216056 -0.805784 -0.526184 -0.336791 -0.207789 -0.114758 -0.053465 -0.031676 -0.023147 -0.019742 10533.074385 11759.715955 14047.088951 12019.812624 9583.335877 9931.350222 11236.806287 11270.584286 10357.886873 7022.762926 4336.136458 4805.163593 5077.089538 4595.894364 3934.969027 2510.080035 1121.372849 279.171244 -145.722220 -353.143898 -447.936375 -481.803035 -480.494077 -457.864336 -422.336245 -379.636864 -333.889225 -288.066844 -244.239404 -203.756456 -167.404229 -135.539299 -108.199982 -85.198208 -66.195133 -50.762764 -38.432889 -28.734234 -21.218826 -15.478950 -11.156328 -7.945309 -5.591779 -3.889263 -2.673467 -1.816153 -1.219003 -0.807880 -0.527728 -0.338190 -0.209994 -0.122350 -0.064983 -0.037253 -0.025247 -0.020735 10497.290979 11128.982377 12266.472634 12008.598655 10692.101114 10165.312872 10000.881651 9173.112439 7800.771129 5817.866893 4505.531746 4194.890996 4078.919214 3653.818511 2878.504001 1840.299901 877.006014 216.031991 -162.055060 -357.719595 -449.481604 -482.473780 -480.851310 -458.069789 -422.446962 -379.680984 -333.885761 -288.030561 -244.181981 -203.686966 -167.329550 -135.464503 -108.128658 -85.132726 -66.136869 -50.712304 -38.390224 -28.698934 -21.190198 -15.456161 -11.138500 -7.931593 -5.581392 -3.881518 -2.667778 -1.812037 -1.216075 -0.805851 -0.526423 -0.337641 -0.210755 -0.126229 -0.072254 -0.041884 -0.027116 -0.021486 10809.801874 10597.529716 9983.434687 9467.757393 9077.186307 7062.227296 5133.059929 2879.589075 3341.050821 5311.913581 319.386738 -4430.126029 -2864.049682 -1157.422369 469.919565 2757.200555 2074.440281 -2626.476070 -3106.081984 -1627.013903 -160.683684 -1641.491461 -5622.065100 -5873.255992 -5099.531096 -4681.399182 -4342.498164 -4077.761811 10975.684464 10733.406563 10462.478404 10743.788871 9962.594196 9580.617174 9184.312275 9618.215359 7757.458288 12590.840408 8824.420511 7367.000095 8721.946236 13155.177695 9993.527747 10692.278981 9803.219077 10068.212928 6914.086387 10150.854683 8525.004338 8454.681720 7660.143247 10900.052809 9491.185044 6714.508430 252.610531 -664.680515 10853.627467 10132.256393 9698.484868 11808.653569 6247.309624 11072.423529 11010.021821 10822.659560 14681.820467 10129.616694 10538.166960 12152.648919 6280.357922 7638.724156 7488.367920 8001.619425 8286.621681 8538.934839 10531.950765 6761.598986 5569.328192 5312.177287 7696.430749 4324.311875 4397.896526 3877.302433 3827.808275 -368.244352 10611.771148 9609.411694 8621.912404 13479.485228 10556.971925 10675.449953 9171.201951 8064.224502 13765.599389 8031.159249 8694.436829 15065.730278 1857.554880 4509.290650 5996.568745 2486.217563 3917.693981 2283.479649 6669.202547 7829.097045 3018.622020 6444.761237 6761.290173 2580.170282 1948.152606 4657.892573 3193.239448 1148.577026 10877.223715 10915.467257 12129.834645 16083.359950 13480.929871 16216.171057 16271.670176 16382.041655 15688.085381 15786.456781 10092.617680 12045.287902 12817.322359 5885.911743 16253.032868 10570.046846 6311.261592 11461.399493 9919.021927 6792.619968 2971.378923 6811.163016 1469.784789 1406.263648 2537.456133 1796.604812 1071.616241 1732.597722 11609.619824 13161.128456 14890.322259 16712.677441 19362.343769 14090.295554 17265.670036 16169.387811 16968.656667 10574.843632 6555.751869 2573.970358 7040.846998 11400.035029 11296.250220 9307.488055 9673.027144 2306.096347 2666.027014 3277.268265 8372.318730 7081.237613 7076.526942 3735.465142 5011.276741 4512.915676 1453.028389 3174.901980 12248.825135 13715.173610 12938.691562 17129.932827 17278.404977 12702.842525 14010.244856 14492.699271 14978.213574 13806.872952 12177.019986 17242.361085 11357.990212 6991.097957 10176.827586 9034.717105 12456.262708 9481.917069 10167.653405 6164.212785 5231.869317 5912.463687 1253.913355 5362.982674 3129.533884 3688.470068 942.313710 1754.558737 12636.571048 13043.740663 13123.997876 14294.988970 17161.015307 17310.953488 17111.693318 11583.087707 15010.862986 13221.484539 14034.182495 9826.846419 12460.111034 16313.036874 16489.982942 14131.975532 9703.329093 8670.953361 8613.506244 10570.725409 7394.203259 9500.869787 1174.409333 6385.291430 5985.003232 3368.764954 7247.006378 9188.828079 12968.625875 13240.523873 13683.439351 18451.982583 17101.334834 18735.834634 17490.883462 19363.372135 16888.086636 18850.428367 14267.999673 18727.283143 11494.607912 14679.657601 10287.602309 10216.215768 11682.371441 10884.898521 5743.113966 5070.728752 7723.253442 3544.184659 1695.276848 4082.542557 4267.222117 669.997120 6510.306829 -4708.797974 13279.914594 13869.343529 14682.748965 20410.807894 22559.113590 20365.221974 20457.313869 20100.068066 17962.537541 15476.702664 13903.400673 15532.725412 13412.990261 14610.644530 8924.171926 7952.057763 5695.394381 13358.254434 7021.637783 11604.078749 8391.388793 6189.706038 7734.573628 8222.554593 5089.183840 3416.907149 1080.070885 11333.224486 13473.131866 14062.262889 15240.196067 21529.433186 22003.369837 21144.543102 19240.763991 16492.377130 16688.971991 20826.822668 14553.267054 15342.502547 8343.941835 7575.759639 12065.037023 13247.524545 8843.616348 10468.173570 6955.270008 10852.842356 12028.836120 3162.131001 5232.779202 5692.297419 2061.583862 5103.492636 5032.450553 4466.435023 13567.285465 14264.787385 16354.855479 21454.046751 20526.084542 20092.958007 17768.519011 21535.679614 12472.866099 16155.223313 7813.025889 18289.910666 9819.354958 15275.988812 11420.625256 12103.851419 13359.695315 2272.749040 -1524.573451 6411.642568 5685.923931 9848.286078 1756.865421 7402.441026 5331.104057 7179.724982 1134.566359 4192.772854 13660.046868 13700.327104 14691.161488 22637.791384 20828.490530 18026.497976 16908.508689 17062.136867 11782.808767 18946.212707 10865.993466 14419.325234 14180.074525 4309.053684 7200.888947 2100.156435 7217.411248 1593.120967 9585.364966 13496.092112 6353.422734 10225.070183 12136.326310 5851.102704 4452.574228 6822.647233 5520.509847 6411.649543 14008.603899 13715.539840 13411.125095 22311.157779 19539.137592 20503.815004 18119.626268 17846.778146 15084.796385 16597.640352 10699.560787 3919.802116 2137.325022 1333.946764 1155.593292 5944.076427 4834.081488 1663.735704 3519.232129 2013.755842 4250.497237 2742.861209 2126.712334 8933.531272 992.658377 4091.808839 6123.554033 2274.930406 14583.483324 14682.651362 15737.380884 21456.088115 17880.598789 20249.177678 18387.855093 16386.508263 15626.431541 12652.731853 4280.760951 6266.037454 1438.484374 767.128939 3496.949033 3705.104916 2122.140551 2573.868326 2413.768966 1862.514416 566.848084 2164.647941 569.815971 3410.616941 4065.441299 1018.154548 632.344178 3371.107560 14976.054631 14766.830650 15046.469483 22328.712534 21458.634586 19359.990041 17925.800356 13854.598453 13673.653799 9384.058818 6475.983520 1281.568047 1459.640609 15395.099878 15481.535725 14950.939261 19226.861063 20331.120498 20456.551551 19230.831888 17546.056157 16199.000307 11651.354602 1765.051105 1701.054644 1379.909620 16110.537587 16965.184169 18733.505394 21348.805594 18482.143249 16463.350440 13331.535147 14721.041548 6727.392634 1692.864510 6416.775053 5286.294855 7194.664461 16759.989908 17667.172893 18636.428884 19040.883187 20437.880834 18871.182804 15884.069166 8847.102008 6889.620961 4012.293608 1454.748157 1021.248043 2105.721097 17117.425707 17603.269903 17430.583914 23182.288799 16772.695743 15908.866840 13995.803695 9099.174592 5507.933666 4672.261960 3484.371934 -2230.767696 1682.108812 17327.130296 17401.638100 17296.012810 20099.482248 21416.493833 18489.919900 15405.605869 7138.795351 1959.083093 846.616877 6488.578714 343.406981 1112.361159 17621.225485 18181.406950 18294.154057 20804.453188 18894.807649 17845.431109 13468.265521 9990.516236 7056.643456 8164.500414 6156.911955 1977.861494 1030.586626 17915.840021 18724.562226 19233.447802 19417.079550 17601.745100 11305.490362 8754.859098 9299.315182 5515.755832 6396.294331 -250.249529 3942.236780 177.345170 18076.788095 18487.608656 19032.606664 17756.076501 17856.387357 13250.610566 12123.107398 14400.496776 12492.358825 4065.774999 4150.508656 3333.648015 1296.560250 18110.465131 18510.124036 19646.033678 20034.809046 17939.159023 15967.411995 18690.196412 11160.295136 9837.915299 6804.237568 4900.408755 6948.368256 8895.624237 18028.144108 18463.934922 19664.043480 20507.292702 15554.989179 17367.057003 9831.025059 8548.195377 8257.465338 9241.871688 6178.072071 6947.732545 304.795887 18014.532711 17392.473682 17733.881859 18564.671080 20876.726199 15758.535171 13472.596399 13744.836033 9938.643404 6584.246080 9848.885176 1648.714549 3106.747681 18295.691570 17899.663264 18975.745181 21044.022421 18693.296007 18100.647124 11583.607542 16680.530358 3922.430709 5452.111400 5501.883756 6705.213507 1069.388438 18641.293999 18814.301995 20169.305198 20503.504824 17203.842765 15099.543924 16263.399073 12412.762182 6787.479148 13647.067288 7454.327858 7573.772967 4593.051415 18933.435452 19021.251567 20020.803673 19919.133224 17778.117390 18386.132096 16421.145307 18739.991860 14022.667714 12161.156046 2593.928808 6108.545963 1923.776508 19276.976587 19803.284229 21477.252535 21554.467901 22102.159770 16880.308742 18759.261327 18506.819045 12842.207408 11740.923901 5041.728601 2603.634864 1064.648112 19489.143844 19467.294508 20916.300781 17071.431294 19823.200311 17909.935381 16818.107095 13704.738449 8906.298662 8650.399848 4425.090011 4711.881869 5056.559650 19541.443617 19088.575368 20332.011059 22694.839776 19509.676975 18858.473206 17553.547711 11558.522989 13254.610619 13318.917440 4143.336367 1601.693730 9361.444723 19551.102893 19512.972633 20336.636694 20141.425030 21785.759958 20953.283555 11422.267634 14643.072583 11104.361270 6719.923703 8692.132591 6411.861891 4823.195595 19460.074768 19696.057989 21018.872815 20427.516085 20083.698167 18969.953096 14680.073264 17633.474687 10493.481416 9280.875397 7985.016563 9712.937048 2719.594659 19391.844827 19782.306265 21648.468462 19277.272670 20742.169843 19591.638533 15289.994817 8001.986760 13683.317821 10830.555319 5854.841234 2304.985943 4829.513378 19525.259974 19878.612171 20668.743233 24285.499682 20479.301785 19626.875348 15646.045954 15287.531272 10441.036941 12302.408219 7304.893480 3921.823413 7302.120880 19896.203481 20405.277937 20230.329780 22052.463512 19955.609733 16797.490862 14865.699880 15822.145970 12203.195554 10585.747609 6136.429950 1959.520084 12844.411263 20350.281966 21400.168621 23036.612416 21261.720102 19148.107307 19160.116917 18037.647197 11005.115708 10845.430538 8334.825590 7496.915830 5293.073368 559.410468 20574.344849 21004.530362 21880.214743 19912.724681 18954.850661 17868.410889 11461.536582 13344.386637 13137.951386 7015.209754 8310.439331 3641.253824 740.124696 20622.353683 20612.432600 20372.875956 21647.029663 20812.462432 15582.405680 14976.699507 12459.140930 14498.550328 8133.781545 4571.022321 6169.056563 -180.660776 20526.655314 20173.537528 19807.140659 18780.200439 18998.536249 18175.806762 16445.157023 16407.689037 8628.924821 9243.603063 3032.642861 3376.171477 -4689.241959 20433.459290 19915.175934 19807.017686 20743.767310 17875.374902 19132.360455 13241.630181 13462.712744 8368.883248 8496.919522 3878.352556 4932.414580 -480.403877 20454.696477 20411.855234 20987.891314 16415.638407 18671.299181 14873.519337 20357.705935 15648.697237 10313.517196 4647.118298 2904.747974 773.157696 2224.284729 20545.193532 20223.890996 20082.057439 17942.642894 18660.551783 17918.272815 18890.511371 16390.095213 9668.988202 9198.207525 7996.087086 5496.004440 2320.124492 20859.248055 20697.570793 20590.501526 19572.310408 19417.650628 16991.933605 19692.995360 17046.688519 13756.480047 7339.141165 7827.636225 3571.821596 5661.900453 21402.485265 22368.000403 23331.969253 17731.889881 20282.401704 18936.654684 21624.855930 14766.541409 10372.475032 4505.285473 6577.552306 4737.248954 -2952.722661 21978.600466 23433.885430 23877.810867 21630.042636 21181.429633 18772.201318 15106.277518 15317.875527 10365.440008 5560.748957 3554.755768 5922.090876 5727.291696 22437.397839 24157.135612 25345.426838 24358.545510 20619.168759 21321.322502 15131.784917 12134.651443 15600.153157 11814.079651 9047.186703 3118.811287 2481.288458 22691.632306 23440.401741 23866.491988 21503.622119 22028.649296 17922.617026 20188.435107 14490.761174 12911.002257 11163.953857 8040.177235 565.402246 9224.544470 22879.501954 23382.751064 23673.183328 22317.160417 21680.773287 21030.422355 19602.812979 16942.303053 9215.743293 9563.266985 5443.355766 6131.262692 6219.319246 22894.692675 23431.877752 23101.252654 21129.234759 21479.050346 19473.142513 16992.482854 16972.635960 8274.232281 6885.702974 6460.819229 7026.797928 6203.268041 22718.560354 23015.443441 22599.965116 22810.516876 21777.928715 19666.734004 19326.486521 13220.927496 5271.325756 8039.455521 8536.242059 6308.555749 96.848149 22436.473121 23179.904892 23382.345205 22539.492548 25386.621988 19570.048487 14525.920119 12159.588214 9696.952048 9828.056103 7803.867996 -149.603113 -98.905849 21958.864936 23546.059390 24397.843505 20753.761736 21042.065788 20625.127541 15403.929292 13782.772373 9031.213396 7408.700252 4836.077755 5631.831079 7651.316948 21479.511953 21141.342569 20689.899958 25658.051128 21072.566048 19081.441205 17036.966202 15270.306049 13072.538395 12112.807704 8727.531018 5653.700312 7425.186603 21658.410424 21674.248375 21884.559164 21878.486412 21428.582998 18559.275142 21643.340460 15794.650851 13064.653314 10187.730923 6750.735956 8969.699134 18143.858610 22177.332658 22103.802820 21418.310442 22237.875865 21183.432353 20129.323485 17850.674861 15480.368950 12763.933424 7984.264816 8452.580409 6048.975931 5847.521708 22584.608185 22770.227814 22626.516047 23929.251938 23934.697667 19752.395611 17399.006346 13684.194619 10626.098113 9173.767926 6406.308815 10825.673350 -625.566761 22826.819307 22163.582925 22068.377206 22266.755170 22112.673496 20971.352206 18980.451994 14830.006222 10038.968822 7296.233367 4417.453286 1954.046160 9311.102249 23086.999275 22500.575142 23236.519368 25265.192957 23943.661993 22083.901210 17568.485730 12882.474790 12478.706991 9974.680704 5633.766321 9965.270706 -1635.444046 23156.111845 22906.608109 23645.154093 25781.710891 21385.903892 19008.362786 17388.169964 16769.851047 13337.898928 10013.849236 5796.527915 7965.670083 2620.005357 23000.707548 21595.392041 20057.811888 22601.437448 22761.153912 20748.766320 18838.470201 16329.840776 12457.214748 9579.423129 7791.452181 -3207.774182 12045.300657 22927.302025 22531.544498 22968.046160 27698.140103 25260.045824 22196.432886 21317.934498 15949.533129 13879.798248 11090.434653 6548.855970 6735.134279 9822.206702 22837.741064 22343.310192 21325.702751 26067.622606 24919.447161 22031.249727 18087.442360 16833.932409 14920.146579 11026.187864 9380.635765 10205.848488 9675.326668 23050.623580 22663.901619 23864.148740 24418.738294 26795.218452 22763.990859 18475.360594 18677.474322 14528.394633 11300.838097 10937.979054 9936.439547 -10267.008279 23537.075902 24146.159377 26126.794737 26521.993069 25634.118878 22509.626934 19600.096125 19126.475691 15221.127116 12909.466862 9923.550641 7953.323755 11905.163430 23843.728103 25295.569871 25815.492878 23921.892226 23852.381653 21722.227510 19162.882268 17027.038945 15662.967565 11731.471705 9881.332204 11242.815791 10732.156717 23751.791220 23112.306075 22032.117475 25601.129837 23752.010985 21454.277693 17567.274919 18438.068933 14321.792793 11942.925039 12974.440796 26589.555358 6311.781627 23563.846263 22754.862829 21661.609715 23428.178270 24152.353163 24646.637323 20337.006000 19682.655642 14782.324336 13586.462746 8484.355777 517.687520 7720.492553 23482.319901 22335.836380 20341.267817 25058.818786 24001.831670 25132.293563 19580.190030 17317.658227 13216.948852 14068.996113 8586.512602 10981.191485 10621.041086 23781.673203 22570.033651 20822.684392 25777.756136 21383.381509 23484.447427 20537.479447 20083.669711 14001.072872 14130.351824 9475.300424 11130.825565 9911.084190 24211.473907 23059.026752 22410.405291 24208.554406 23887.329242 23507.877875 19503.697486 19283.400001 16057.551411 9931.448163 9885.284963 10943.584833 -744.696149 24028.457703 23338.889618 21568.749013 24059.091574 25219.708794 22672.374259 19180.095001 20043.516129 13023.823653 9988.094607 8294.102832 6947.905015 6823.909961 23440.682348 23277.562221 22369.873632 24239.341582 22662.681536 22140.157796 19767.819097 17866.039668 12404.554376 11287.522383 9150.526063 6617.970223 10140.296377 23349.736179 23439.880031 23579.625820 24123.702026 23817.470721 20694.323487 18601.038536 15879.960353 14157.268347 11737.301491 9344.189811 6029.638799 17205.594477 23353.662408 24781.345496 26043.286926 24130.591432 23278.620721 21561.145857 19312.311809 17427.272339 13882.686438 11612.420027 5892.602612 727.292127 6695.883528 23019.081266 21957.375630 21347.974486 25005.809120 22788.403552 22374.607838 19531.424845 15937.406763 14279.291436 9478.943128 9494.987029 8644.733751 -4801.790161 22977.381594 22853.372139 22684.204367 25829.787835 23657.900538 22920.266619 19506.448693 16981.633085 12526.008652 10575.566292 8018.937348 9182.890789 6761.011559 22793.648498 23287.665741 23772.655353 26658.009496 23562.968750 21436.170106 19137.713926 15828.524292 13301.618798 10851.555372 7423.131956 10100.198526 7148.881883 22458.009860 23711.879174 25357.182736 26533.965484 24252.494719 21953.654823 19548.504686 17270.520747 13093.283002 11118.962869 8203.540185 3368.894175 -6529.423762 22234.283470 22332.128053 23952.185626 25502.327121 23538.730464 21612.064037 19629.014902 15032.860616 13487.534880 9602.367941 8268.740907 7192.978820 7374.018036 22434.868093 21999.372232 23451.636098 23942.899863 23274.574184 20936.328925 20671.563846 16068.079791 13523.178310 9919.950629 8857.920942 3947.497304 884.442046 22567.400668 22907.419552 25082.922865 24850.584928 21403.183302 20784.838961 20968.622086 16384.075631 13437.166210 9762.732716 8363.224006 8510.142125 11485.507490 22311.615834 22355.123958 24044.738383 23835.313034 24088.477705 20798.072926 21741.146699 15691.298741 13899.928162 9358.473728 7322.406453 8810.137258 2353.109802 21994.971999 23035.897033 25172.474878 23612.539795 23791.332807 23375.779163 17404.589708 16786.264781 14746.551345 10839.954171 8222.815726 3310.630188 2574.165796 21610.702811 22192.177512 23804.460925 23832.362050 23364.289745 20965.931470 18929.253105 16248.361561 13348.040973 11300.121528 8846.885382 2863.301745 5834.919600 21291.959140 21928.360309 24056.726426 23603.968780 22047.124330 21936.260745 19167.779415 15605.732263 13222.059333 9085.562233 9728.827697 6818.796807 7739.021729 20929.089551 21585.209569 23326.455070 22430.818969 24597.180885 20266.928968 17967.760095 14113.520134 11414.147924 9372.019641 8473.266491 6656.821061 4068.658288 20488.678852 19812.776291 20772.216954 23847.963663 21217.634899 17007.953175 15959.117386 15933.257350 13371.638385 10545.156566 6415.350436 6973.176145 7187.546065 20033.252177 19114.744927 20283.892770 22199.588790 21358.302308 17607.563048 15908.239648 16017.789096 10744.420505 7778.306958 8837.639497 8931.420842 1997.941207 19245.857977 19308.547743 20777.697924 21456.069933 19052.863174 19447.277611 15914.758308 11234.654167 11655.242954 11010.363473 7443.158272 7067.682981 10473.957712 17842.383217 18498.565674 19247.847975 21674.166312 18322.302527 16069.044137 11856.456280 13822.998889 10939.742428 9197.408342 6222.084375 8621.189799 10004.554995 15930.319552 16159.014618 16308.366054 17574.522654 16200.815386 16182.896714 10817.482480 8011.178764 10832.782445 7221.212890 5521.792395 5966.775278 6127.662137 14304.998044 13081.972641 12115.200462 14072.736667 14425.548275 13066.715256 11314.192273 10190.061709 11241.415539 6299.492568 8826.480715 8228.857893 8671.889036 13598.299351 13235.247560 12316.320562 14252.153848 12484.951992 10884.191276 11044.100036 11086.147520 13376.456538 10092.971293 9407.324708 4984.017861 8097.598391 13089.607482 13337.436775 11752.956021 15727.274536 14323.660505 12583.998506 21158.510839 13332.391520 10723.199362 13694.145261 8215.128581 6671.943432 4464.679857 12045.740548 10860.025246 9201.573384 14132.772387 12762.409084 11514.038688 12754.658618 16294.280790 13138.946731 12171.899134 11777.518434 7153.115961 4421.208914 10876.966750 10353.756324 11334.817539 13741.170069 15409.624609 13368.454382 18715.677586 12444.858413 12815.097399 19011.661004 11703.400162 12646.342423 12156.274199 10301.598936 10831.306535 11606.988647 14368.327885 15839.606838 12581.116875 14128.214016 13382.667519 14906.841465 17507.514516 13213.688467 10905.068094 13144.766976 10423.835218 11736.129986 13638.093727 18328.471639 19822.259460 14974.117460 14331.948020 15621.321905 17305.236517 13795.813854 14188.677017 11175.599885 12950.236764
</DataArray>
<DataArray type="Float64" Name="Velocity" NumberOfComponents="3" format="ascii">