<VTKFile type="PolyData">
<PolyData>
<Piece NumberOfPoints="2177" NumberOfVerts="2177" NumberOfLines="0" NumberOfStrips="0" NumberOfPolys="0">
<PointData>
<DataArray type="Float64" Name="Pressure" format="ascii">
 10304.740309 10150.419897 9809.003153 9261.919485 8474.049843 7461.133102 6314.131289 5004.479272 3414.260570 1715.638335 375.695526 -275.910716 -296.165873 42.031071 395.187970 353.812749 -285.538033 -1053.914877 -1457.327543 -1643.126808 -2051.788069 -2904.649421 -3805.663059 -4317.370900 -4455.323484 -4379.111302 -4195.526620 -3950.559920 -3658.868771 -3336.095692 -3004.598794 -2680.538691 -2372.234761 -2083.782886 -1817.180841 -1573.281370 -1352.223094 -1153.649427 -976.834044 -820.764728 -684.209637 -565.775867 -463.963019 -377.211561 -303.945194 -242.606782 -191.688012 -149.753832 -115.464741 -87.605828 -65.148067 -47.378759 -34.045048 -25.077454 -19.940102 -17.769054 10480.238575 10354.069235 10104.072145 9709.789640 8999.183997 7921.722160 6852.135501 5755.534521 3978.946768 1674.694791 -93.705172 -692.272865 -473.301261 126.913188 780.090974 1029.328485 -204.382838 -1523.328061 -1648.248370 -1467.092959 -1749.671410 -3264.343418 -4406.302171 -4623.375949 -4609.655622 -4453.045859 -4240.749432 -3992.750452 -3691.586579 -3350.860431 -3010.121292 -2682.579124 -2373.145472 -2084.340956 -1817.628312 -1573.689249 -1352.609649 -1154.017248 -977.181497 -821.089481 -684.509728 -566.049992 -464.210552 -377.432475 -304.139902 -242.775820 -191.831231 -149.867943 -115.535498 -87.584051 -64.881629 -46.575016 -32.507133 -23.628584 -18.955833 -17.098864 10755.249819 10707.714693 10733.905224 11108.709324 10773.933727 9063.880053 8024.572222 8061.605875 5973.512496 1654.138875 -1307.711594 -1501.510680 -722.243793 246.761626 1512.350231 2594.155014 -178.853530 -2751.550755 -2052.841451 -1072.056983 -825.456822 -3744.479299 -5685.474448 -5149.851867 -4809.639246 -4542.811583 -4299.159398 -4069.317809 -3764.925844 -3372.509864 -3015.798663 -2684.038454 -2373.326295 -2084.123600 -1817.287214 -1573.314576 -1352.233454 -1153.652656 -976.835048 -820.765039 -684.209730 -565.775884 -463.962982 -377.211408 -303.944672 -242.605024 -191.682108 -149.734023 -115.398344 -87.383049 -64.409208 -44.752086 -28.628890 -20.742780 -17.286823 -15.993014 -20.431376 -16.957156 -15.408102 -14.608731 -13.414787 -12.660482 -9.997170 -9.711758 -9.434921 -7.002540 -6.927391 -6.833557 -4.904496 -4.888019 -4.854061 -3.415677 -3.414797 -3.400618 -2.359588 -2.362228 -2.355095 -1.615260 -1.618125 -1.613920 -1.095258 -1.097587 -1.094859 -0.735505 -0.737233 -0.735386 -0.489127 -0.490358 -0.489092 -0.322118 -0.322976 -0.322107 -0.210070 -0.210659 -0.210067 -0.135667 -0.136065 -0.135666 -0.086766 -0.087032 -0.086765 -0.054953 -0.055130 -0.054953 -0.034468 -0.034583 -0.034468 -0.021410 -0.021485 -0.021410 -0.013171 -0.013219 -0.013171 -0.008024 -0.008054 -0.008024 -0.004842 -0.004860 -0.004842 -0.002893 -0.002905 -0.002893 -0.001712 -0.001720 -0.001712 -0.001004 -0.001008 -0.001004 -0.000583 -0.000585 -0.000583 -0.000335 -0.000337 -0.000335 -0.000191 -0.000192 -0.000191 -0.000108 -0.000108 -0.000108 -0.000060 -0.000060 -0.000060 -0.000033 -0.000033 -0.000033 -0.000018 -0.000018 -0.000018 -0.000010 -0.000010 -0.000010 -0.000005 -0.000005 -0.000005 -0.000003 -0.000003 -0.000003 -0.000001 -0.000002 -0.000001 -0.000001 -0.000001 -0.000001 -0.000000 -0.000000 -0.000000 -0.000000 -0.000000 -0.000000 -0.000000 -0.000000 -0.000000 -0.000000 -0.000000 -0.000000 -0.000000 -0.000000 -0.000000 -0.000000 -0.000000 -0.000000 -0.000000 -0.000000 -0.000000 -0.000000 -0.000000 -0.000000 -0.000000 -0.000000 -0.000000 -0.000000 -0.000000 -0.000000 -0.000000 -0.000000 -0.000000 -0.000000 -0.000000 -0.000000 -0.000000 -0.000000 -0.000000 -0.000000 -0.000000 -0.000000 -0.000000 -0.000000 -0.000000 -0.000000 -0.000000 -0.000000 -0.000000 -0.000000 -0.000000 -0.000000 -0.000000 -0.000000 -0.000000 -0.000000 -0.000000 -0.000000 -0.000000 -0.000000 -0.000000 -0.000000 -0.000000 -0.000000 -0.000000 -0.000000 -0.000000 -0.000000 -0.000000 -0.000000 -0.000000 -0.000000 -0.000000 -0.000000 -0.000000 -0.000000 -0.000000 -0.000000 -0.000000 -0.000000 -0.000000 -0.000000 -0.000000 -0.000000 -0.000000 -0.000000 -0.000000 -0.000000 -0.000000 -0.000000 -0.000000 -0.000000 -0.000000 -0.000000 -0.000000 -0.000000 -0.000000 -0.000000 -0.000000 -0.000000 -0.000000 -0.000000 -0.000000 -0.000000 -0.000000 -0.000000 -0.000000 -0.000000 -0.000000 -0.000000 -0.000000 -0.000000 -0.000000 -0.000000 -0.000000 -0.000000 -0.000000 -0.000000 -0.000000 -0.000000 -0.000000 -0.000000 -0.000000 -0.000001 -0.000001 -0.000001 -0.000001 -0.000001 -0.000001 -0.000002 -0.000002 -0.000002 -0.000003 -0.000003 -0.000003 -0.000006 -0.000006 -0.000006 -0.000012 -0.000012 -0.000012 -0.000021 -0.000021 -0.000021 -0.000038 -0.000038 -0.000038 -0.000068 -0.000068 -0.000068 -0.000120 -0.000120 -0.000120 -0.000209 -0.000210 -0.000209 -0.000363 -0.000364 -0.000362 -0.000621 -0.000624 -0.000621 -0.001055 -0.001059 -0.001054 -0.001774 -0.001780 -0.001772 -0.002954 -0.002963 -0.002950 -0.004876 -0.004886 -0.004860 -0.007978 -0.007978 -0.007921 -0.012957 -0.012901 -0.012758 -0.020941 -0.020655 -0.020250 -0.033883 -0.032723 -0.031486 -0.055758 -0.051127 -0.047398 -0.094596 -0.075981 -0.066508 -0.124175 -0.090783 -0.075939 15996.650449 17461.265670 20724.115145 22412.945017 19689.799241 20034.170227 19770.898887 21876.528223 23692.864721 19331.261076 20458.575769 26642.047061 26387.291827 29819.886877 35149.336587 40745.717317 38704.744515 35619.512257 30391.802851 47090.769066 65198.983864 16380.774940 -9694.621201 33982.644961 88293.975197 14203.639021 -55.600657 -270.988230 -251.044016 -219.692448 -188.153283 -158.452951 -131.464422 -107.578660 -86.892550 -69.312712 -54.625425 -42.546907 -32.760133 -24.941453 -18.779113 -13.985289 -10.302996 -7.509094 -5.414432 -3.862047 -2.724133 -1.898359 -1.303923 -0.877505 -0.568982 -0.332090 -0.167813 -0.107390 -0.083046 -0.073226 15644.731853 17178.287571 21321.997481 20158.126372 14212.400785 15703.077029 17396.149609 19243.485458 22627.530485 19701.078052 18969.591146 21987.141829 22543.112741 24214.158315 26176.695025 26006.076346 25288.807434 25644.576613 25020.861069 24921.724829 21076.341895 12726.843147 11520.353686 15753.471950 12530.449869 1506.122301 -197.208376 -274.632634 -251.125061 -219.707385 -188.187196 -158.499147 -131.516226 -107.631574 -86.943618 -69.360067 -54.667990 -42.584193 -32.792071 -24.968268 -18.801219 -14.003205 -10.317285 -7.520318 -5.423121 -3.868681 -2.729143 -1.902148 -1.306966 -0.880698 -0.574826 -0.353063 -0.200388 -0.123824 -0.089680 -0.076633 15261.262642 15903.320750 17535.932252 18106.045715 17046.636732 16718.732768 16062.123155 16344.727370 17765.611307 17702.935506 17909.245933 19025.743888 20058.995631 20813.546441 20877.665854 20262.686367 19817.750457 19498.451385 18308.451176 15976.343407 12832.853637 9945.698585 7541.101089 4651.284058 1570.986294 49.674399 -264.549762 -277.274540 -251.273442 -219.704000 -188.154000 -158.453004 -131.464428 -107.578661 -86.892550 -69.312712 -54.625425 -42.546907 -32.760133 -24.941453 -18.779113 -13.985289 -10.302996 -7.509095 -5.414437 -3.862064 -2.724192 -1.898565 -1.304641 -0.880002 -0.577519 -0.364303 -0.221248 -0.137539 -0.095557 -0.079230 10917.185138 10888.123635 11060.410777 12047.370762 12124.452082 9861.583909 8567.538939 10109.310332 8324.159851 2166.876408 -1658.684723 -1942.713521 -804.957014 280.523325 1767.301465 3085.678859 -262.093915 -3214.279217 -2211.677612 -878.315723 -131.964458 -3291.517161 -5815.140241 -5303.890786 -4867.480912 -4568.010658 -4317.438899 -4107.021486 11246.645070 11504.088286 11666.049512 11593.685891 12579.180681 13255.249442 11858.707691 9424.406049 12753.746506 13185.781517 12924.375547 9196.946909 11233.218371 14415.033414 10050.679699 14254.811747 13069.784114 12808.271314 9872.737646 11429.124930 8221.979250 12818.955166 11255.272150 12767.804115 11596.465682 8859.301199 130.393486 -4781.476539 11534.200547 12200.028973 12911.817096 14539.067470 9216.476011 13234.484611 14852.058742 13772.256568 16496.592354 10906.373691 12896.542404 12915.250854 7861.587308 11546.514316 8420.546477 11632.725173 10327.302883 11212.529333 13603.144166 9344.664232 6927.726149 11128.066741 11103.162008 8485.171836 8050.683902 8699.074465 7574.098895 1896.594716 11982.412645 13155.496687 13893.010444 14376.354553 12444.040358 13600.969156 7942.261743 9045.520362 13509.983011 10544.179425 11574.289825 13727.116391 6314.824160 8192.712773 7401.740432 7627.162537 7407.515395 3980.965901 7260.232858 11456.603533 5632.288232 11744.379514 11807.898142 6427.335371 6047.296885 8111.247768 5177.625768 5741.117958 12642.635993 14398.126768 15973.585731 14684.856805 14574.874441 14568.994324 15715.341141 15879.650654 18535.336943 15415.805175 9854.915784 10394.919549 11852.681688 6769.504000 15744.134499 10728.299143 9600.162289 13597.164948 6555.718151 8391.112579 6186.140379 8077.018198 8451.419095 3307.750732 1820.499429 5561.674736 2521.491707 5415.990038 13056.677126 14081.136997 14454.318801 16548.452858 17781.286111 15138.528809 18732.961308 16483.504478 17577.068828 10206.281563 6644.037381 2656.330115 7815.291849 8486.463702 15822.332677 10976.835123 9128.495519 7900.001487 5925.373677 4070.159789 12853.047541 6281.621569 8922.528164 8616.411440 7509.507861 3352.667342 7116.074153 6696.679488 13209.010170 13873.024567 14224.029213 18363.000654 15007.214663 13105.121777 14699.184696 17093.874019 13911.599901 13385.711996 12169.013553 15982.537468 13119.969964 6951.249007 6579.768352 9843.143760 13763.289703 9342.009751 13122.480136 11634.857546 2575.808514 4113.456433 1380.836715 10267.763087 5024.763601 10849.615337 10246.840094 808.401757 13223.614036 14032.797462 15224.622266 13685.056599 18645.000014 17563.489561 17353.609330 11666.597446 16230.234459 14656.634761 12541.176878 10044.519194 12303.909196 14997.278655 17449.836622 13478.389356 8968.918834 11561.074115 9537.608704 10565.600597 9809.123632 11458.984390 5536.040309 9880.634962 4978.121096 4471.726995 1437.216961 615.512862 13242.237572 14048.304283 14445.699795 17823.775298 16135.627469 18156.788044 15278.454325 18644.121622 16987.259647 20143.562238 14518.621842 17157.294966 11715.540889 13688.006685 8989.267443 11247.340937 11644.746577 10504.675382 1986.147142 7454.816499 5595.449097 5783.919223 2135.243722 6239.963249 6031.501132 3409.054133 6273.206436 6420.574320 13602.806290 14316.615215 14376.088902 17480.396725 18699.656891 18785.187080 19398.628778 17661.788273 14906.309895 15454.364876 11499.197909 13727.975197 13271.864365 12111.028910 8211.229225 7879.696460 5636.932615 10582.624911 7870.074446 10823.114170 7757.313764 6190.336117 5845.190060 9295.611741 5956.487353 3252.345505 3679.466047 7593.259268 14170.502715 14620.877975 15102.298243 18342.533372 16167.398587 16518.225602 14033.269797 15804.927188 12591.488102 17299.721664 12339.174755 17086.135357 9183.893004 5523.425317 11111.632301 11920.043947 7992.571904 9113.264336 6023.602937 8800.207531 9790.244046 6081.847110 4186.540006 6582.645950 3134.617846 4266.553151 4817.402807 8550.045166 14540.616873 14870.239448 15180.901652 17295.543266 14698.810744 17050.967411 16287.827923 15435.760185 10852.621968 13198.600403 5053.673236 13664.649929 8570.543084 15740.604738 8340.281882 10196.512088 12660.154786 2160.156556 1446.600193 5309.543648 7062.102201 12076.103336 1212.083391 7020.142876 6146.231331 4363.382064 2263.227927 11045.700415 14957.410614 15429.932301 16571.828311 18427.665420 18098.308057 16235.328557 15676.831276 16839.034943 9209.233243 14899.337161 8703.045744 13010.422188 12333.219794 2600.148397 7126.780082 940.606870 7487.176253 2989.689136 8103.509723 12447.436147 6855.259581 8115.081382 9436.220295 4259.515705 3273.516606 2869.840605 3951.676231 2762.393680 15596.847258 16011.233439 17600.155481 19004.933608 18503.901102 18717.646086 17375.109997 15808.955894 14655.992383 15150.230500 11580.216478 3710.324872 526.550366 2033.989422 442.405708 6393.718129 5390.857284 2049.578501 3044.486054 1576.933587 -46.607240 2137.456147 2768.531478 9017.944936 862.609397 4610.973121 4139.048558 -516.375030 16289.798647 16523.014577 17039.900777 17642.466001 17437.406763 17849.516162 18166.314367 13722.929618 12531.249679 11736.874905 3844.670585 5227.707573 923.146908 945.678945 1294.044162 2541.308364 2278.933954 333.320491 1939.314086 1607.161556 495.087378 805.749652 2317.900127 1792.611285 4443.689088 2325.860298 1243.594436 1313.622875 16969.050239 18311.902084 19562.689716 18131.024658 18276.308981 17278.243044 16305.618330 13500.892688 12316.730078 8638.070626 4782.098496 1395.165991 1255.464142 17270.328381 18208.134442 18916.357154 19551.826517 17299.951159 18430.051300 16757.468034 13419.436334 14054.059470 10362.165262 2160.671042 1195.845911 1502.785475 17281.941693 18081.358606 19257.757442 18893.180738 15680.186387 14329.883442 9510.128070 13442.972841 3935.481242 2278.565135 5007.261246 2524.102952 7577.900080 16935.041471 16979.824597 16881.427726 17536.216063 15950.187712 15412.377809 12877.795727 7669.870821 4969.482025 5729.025666 89.671053 919.085015 4741.278663 16518.571568 16541.921813 17191.667959 17576.524806 14173.388024 11891.182806 12420.583580 7066.800817 3482.575629 2123.059772 4155.453943 9709.540989 1133.080880 16462.033848 16776.688254 17799.818345 16334.684187 17222.286964 15466.727943 14093.967830 7854.435102 403.694633 2147.592094 6742.305975 3880.774030 5021.399502 16590.461752 17156.044898 18703.686251 18671.486483 16592.983719 15380.117832 9490.253144 8872.250934 3561.566497 7095.294196 5199.615757 3327.170196 2140.727702 16610.164017 17131.807410 19066.683384 17133.101664 15141.514258 6380.131225 5500.190652 7135.885008 4336.462551 4616.611161 1912.342729 2927.683708 1236.637021 16580.632210 17048.664917 18465.955773 15966.433717 13795.387850 9547.154342 9139.755781 12101.003412 11285.683674 5556.382759 4167.941997 2793.791064 867.812846 16664.394929 16802.300142 17408.212253 19339.501305 15397.934007 12074.633279 15605.877777 8044.509214 6856.142329 4685.846255 5280.990287 7957.871558 8115.133067 16865.825693 16768.310089 17575.345614 18550.291698 14791.742504 14657.614445 10494.053582 9847.016586 8628.283277 10271.443056 4972.725310 5917.760293 5954.137943 17102.527536 16998.212958 17267.764121 16757.649427 17505.402346 14103.124090 12044.275462 10544.978598 7790.436945 9091.940581 8268.133900 3158.475179 2588.515864 17279.675845 17214.498891 17819.893020 18249.239531 15868.800301 14993.496477 12571.129803 13587.799829 2440.465274 3400.158191 5557.327722 4612.618091 1708.539178 17338.361625 17435.649579 18090.175343 18281.149540 14046.220919 12898.970905 14266.887642 11706.024749 4903.052461 13928.995110 6197.805629 6387.079778 2916.858580 17422.467289 17695.454588 18561.711455 18703.950304 15731.396571 14963.217194 13326.283648 15441.916396 11301.266630 9964.912631 5016.830999 6717.361594 2692.228789 17569.108008 18005.354377 18771.062993 18053.567979 17689.223161 18320.532653 15197.550580 17124.181629 13835.113865 11871.543678 6334.161169 1827.094177 1564.334048 17622.663510 18123.629439 19076.393069 12959.637343 18305.963969 16741.367290 14294.501976 13629.083348 8943.225134 7391.362337 2745.115696 1996.378966 2585.311198 17533.176241 17988.390686 19495.820496 18447.910386 17464.515567 15483.205779 14881.763182 11158.751702 10615.686707 13205.114555 4860.210666 3920.487147 47060.469615 17471.244605 17033.756203 16652.370755 17064.505925 17002.592368 19254.457817 10740.966004 14130.566231 9738.894087 6297.433825 8228.469444 6938.717819 3606.487932 17608.933617 17462.710812 17356.018555 17557.398862 18194.301947 14961.114104 17218.060546 12369.966582 9333.388728 8719.737316 7690.897030 6276.332586 1069.818542 17841.194092 18409.001817 19368.127612 17810.425166 18092.934400 18471.488209 15418.205569 9014.872739 12950.822708 9949.481154 5817.229520 2072.234340 4338.327027 18200.550355 18782.396852 18436.596116 18856.332446 20344.199072 15068.645254 14405.270337 15016.437172 9942.127221 7942.445137 7074.722886 3309.407459 3984.659708 18627.608532 19567.260575 20155.059057 18866.154366 19852.355223 18601.191000 14489.183742 15233.894009 11236.477222 8524.645484 6935.493930 2609.690428 13166.038118 18762.696752 19547.363432 20020.312625 18407.012005 18416.727391 15774.828666 13956.647644 10159.031340 9015.787986 9045.658344 5895.268708 3116.221325 1261.553049 18611.432046 18985.341799 19107.457318 18809.404070 16685.551238 15630.793305 9034.982420 12168.715757 9560.600463 8860.352701 7070.551425 5408.050113 1447.310359 18518.533741 18993.391734 19426.167369 19692.560216 19558.396526 11376.237755 14302.273116 9658.762830 13512.015443 8473.467211 6623.001974 5990.108268 2281.916414 18611.058084 18978.462684 19272.930345 18451.405249 20093.216933 16575.303559 12339.992134 15568.940169 10233.701268 11903.201205 4840.027443 3037.268441 -900.762703 18760.538464 19170.760668 19731.804699 18554.464831 17065.789517 17305.293427 11937.113351 9804.562159 7870.260694 8595.658253 2823.322288 4384.858825 2047.944530 18825.756825 18944.457659 19282.663534 18900.184014 18129.515325 13317.683130 16234.609256 12998.846348 10137.162498 5452.862978 3274.048082 2780.099974 1143.255148 18913.326222 18845.612584 18464.142802 17517.485025 16220.446125 15528.633743 18483.497939 13868.062522 10537.084302 10228.066549 6336.258909 1845.774227 1754.990743 19052.695392 18912.785796 18625.869971 18680.260289 18335.133246 14369.859431 15942.645977 15872.947036 12718.290267 7904.407390 8261.960667 4564.761152 4108.878308 19159.753466 18829.327620 18154.573445 17161.079597 16346.425413 15175.665653 15105.356840 14665.334012 9331.893891 842.894526 5855.526736 4709.392086 9368.958543 19361.555282 19014.224981 18345.484332 19771.398795 17036.309480 18709.089224 11108.877516 11413.164658 9460.112217 5366.708080 4763.682432 5040.655075 3896.209586 19714.187928 20026.762820 19372.280679 19220.678801 16622.859454 17190.894951 14554.584000 13152.937377 13102.742423 12268.185679 8861.491833 3976.696500 1630.114386 19814.743554 20730.875755 20223.347864 17997.337745 20046.333866 14498.267336 16787.463962 14598.851579 11190.628245 11133.452514 6440.425450 1454.083423 6411.623592 19465.235674 20139.111322 20659.372657 20308.958454 20558.457224 18631.023728 19540.828003 15017.959463 8664.929104 7731.931168 6075.794035 2318.604218 4643.709160 19116.125035 19733.754632 21151.273861 18545.670049 20016.120246 16354.798764 16479.605649 16921.552317 8754.486511 6097.913975 5587.528066 4329.159638 3096.120847 19074.642325 18641.915608 18640.494793 19718.663006 20353.793527 18439.213777 17296.024219 10971.815422 6220.256382 6635.999348 6488.809647 5987.791058 10607.534234 19449.158136 18401.505281 17003.640283 22422.270430 21256.336345 17591.682054 11728.079774 7986.881681 7971.376417 7940.739746 5315.785412 2890.148973 3368.315973 20048.907145 19610.814092 18844.160598 18345.042066 16732.363420 17542.646752 12923.189435 8701.777188 9128.320239 5670.660843 3775.022808 6622.931447 1518.910324 20520.878871 20078.030118 19803.788884 21335.065437 20328.425978 16469.412853 13621.955471 13024.133843 12528.856738 9989.273390 6825.397641 5465.663143 1543.524694 20884.479943 20404.288855 19145.125385 18141.387082 18214.798097 18465.035863 17983.287449 13548.907875 12292.072437 10163.559653 8040.749674 7706.847311 6188.217059 21144.223957 20832.704586 19656.354893 21002.637062 18937.095912 17249.910485 17898.994985 13799.585554 11493.082786 7341.809654 7394.398669 6118.741388 7798.032168 21211.991082 20450.689421 19624.417189 19882.033943 20395.360266 17714.764772 15742.409857 11605.136552 8952.498906 8857.386286 5943.968743 489.179345 2994.270696 21179.118421 20017.077765 18546.278607 21004.153328 20113.551433 17543.705724 13844.801528 11564.418591 6854.566940 6965.371411 2823.592040 4767.217875 4445.571862 21063.461699 20835.722817 20422.240130 20173.148661 19637.373677 16950.841907 13768.566778 10655.930398 10760.617431 10271.025654 5488.734894 1306.430248 -1595.862666 20770.997924 21900.802491 23854.863895 20926.753786 18542.753799 16696.066882 14383.816885 14085.267638 13014.404821 7455.206877 6125.945216 4035.952587 -3069.795958 20441.587516 21001.656261 22694.016597 21878.279918 20926.800155 17403.047142 16873.742895 15471.790261 10496.109721 6869.995600 7424.032593 7484.037144 3426.670259 20454.291600 18095.369145 16587.222512 19789.725121 20218.328577 18540.031661 17584.740015 13597.145106 10804.109520 8300.641559 9651.318332 6011.226526 8794.412792 21138.812843 18928.187751 16527.738404 20469.974472 20492.263679 19693.611171 16935.755316 13835.467347 13411.487110 13371.577648 8285.170183 8209.186451 12182.957382 22032.383457 21997.125865 21590.722382 21472.638440 22625.368508 18865.821246 18023.220191 15581.912066 12242.376297 11944.171005 8911.453302 8065.713402 865.878109 22517.832841 22781.338180 23218.851017 21206.789050 22856.779090 20461.766404 19941.745158 15069.686922 13694.541454 10134.268426 10351.209567 12474.282947 29476.466502 22781.912047 22188.680807 21238.194212 23044.649218 24793.083965 19694.923053 19824.462672 14434.038296 15521.174766 12177.079669 8602.975204 5684.594362 4346.727777 23016.615147 23356.149958 23910.863702 23840.195718 23050.170529 18963.218423 16766.526928 16177.090713 11139.237433 12739.778400 12046.877234 1525.238731 7504.859882 22881.832099 23753.555170 24349.116218 23661.131074 25150.487097 21963.398492 20415.429472 15370.933719 15061.346555 15244.724021 9301.929139 -785.008300 -3991.774376 22459.964051 22193.095170 22173.505948 24260.657080 25132.595213 20969.995947 20754.240213 14007.568147 13866.415725 12071.473768 8932.045804 9319.976841 42931.417598 22476.396476 20786.307845 19797.609068 23202.151461 25885.498655 20070.006774 21484.074094 15800.628671 19535.788699 16202.190074 8207.705258 10398.401489 14334.156396 23036.751778 22580.031519 21797.032157 24438.324750 22921.939665 20423.515691 21423.468558 18448.678337 15152.108630 11584.100245 11683.007766 7188.189053 25.576386 23582.897148 23464.469965 23580.431884 22474.981307 23370.207150 25121.136413 20430.799750 16402.224515 10575.151352 14650.994338 5768.621380 7249.382450 21737.268725 24089.339596 23672.025848 22292.393629 23954.322624 25305.649271 22802.220464 21393.623277 21038.379630 12914.018701 15275.600134 8449.256030 10483.834543 6700.218374 24649.464313 24572.807662 22253.795240 26864.742520 24186.484917 22993.880479 22656.259315 18250.116302 20101.915511 13107.788870 6785.232803 3483.035258 26543.237608 24935.971330 25257.641644 24567.691646 26931.016044 25801.429733 24085.843605 23365.467416 21040.146999 17408.708690 14884.739132 9653.436117 3382.778830 18267.809762 24910.090662 24789.927559 23990.330774 26654.936944 25568.142660 25912.348190 23824.812134 21646.559287 22250.361905 14959.919231 11795.934020 10412.680923 33538.876494 24956.018207 24184.454791 21964.396109 26999.878296 26803.737503 25554.149702 24241.867918 24080.632246 17941.520368 16555.718369 8363.406807 4787.808480 30547.955344 24994.121468 24350.030794 23060.443035 29201.913014 25517.785585 27473.882252 24946.270494 22875.214054 19085.705907 17842.748552 11156.549820 15714.464314 21458.504666 24909.917151 24307.223355 23885.053927 29150.363518 28200.025229 27705.956103 25319.999954 24441.752998 22016.151716 16502.510142 12883.031877 17229.150762 33776.837309 25178.902435 24530.726245 24119.273250 28602.732538 27552.476392 26343.740983 25107.352095 23874.394636 21173.839585 18114.704750 13638.512862 13257.655852 25912.197416 25801.675020 24986.961626 24851.923585 29914.995814 29728.656550 26546.057507 26079.289966 26390.620623 20104.958235 18168.997509 14894.016002 16324.735938 -10871.357274 26338.572373 26304.456598 26796.536715 27965.107852 27792.278047 27020.214483 24294.979864 27157.245753 22100.157947 20368.073062 20541.598382 16190.755192 31995.053914 26460.315129 25846.374745 25896.558889 28436.538491 28638.241935 28013.479993 25918.178235 21500.313525 22606.790292 19121.805694 16444.761206 16444.821646 51425.998342 26469.219390 25845.184290 27084.623142 26188.508546 26955.065813 31870.994376 26516.604242 25379.506074 23672.385825 20339.497317 16291.659132 18868.573409 36325.612540 26668.111092 26358.112644 26836.371229 29812.348257 33678.938828 26768.089361 26258.157709 21473.770916 24225.464897 20323.242488 19333.932381 18997.791938 28054.816233 26981.780834 27175.078272 28225.414647 29409.369718 27879.307812 27112.584198 25759.500731 26065.647048 21062.136177 18423.827545 18485.425768 23622.419026 42581.890003 26862.885129 27538.527534 27662.889513 31295.088361 31187.103240 28089.869153 23693.827089 23906.342909 21656.944060 22288.303227 22431.870536 26771.384281 58224.164232 26245.643028 26561.471432 25370.199788 28461.888374 24443.585100 25753.708402 24833.462603 26635.900390 24615.092736 19037.480753 21891.132207 22239.754593 32769.009591 25245.827555 25176.654142 25938.006327 27952.109376 25279.904005 28506.796905 22580.352932 25827.554117 24157.620786 21776.463384 23229.486914 31445.247258 4422.275135 23600.600858 23414.108655 24550.306373 26716.496225 22497.297630 26637.349634 23555.675786 26256.888172 28888.929418 23162.716023 23045.164621 28179.837221 42584.700901 21693.873912 23233.690559 26009.692485 28232.514605 24678.960386 21802.516165 29291.173973 25413.633964 24751.521101 22949.649576 25688.072198 30830.865684 37539.515244 20459.673269 24889.436682 30000.823058 22891.422852 20579.678423 29703.851012 32541.685412 28817.249545 26975.051003 23500.582130 28709.145143 27928.645000 69885.998321 19659.985843 23822.444339 27806.225066 26348.080901 24666.635069 28470.067828 24988.343662 33727.673988 23092.848263 23677.597930 27675.133743 27217.267358 32817.542244 19075.196951 22896.421142 25528.799417 23414.185864 26178.685120 20333.160248 28051.513286 23024.992877 28091.780890 29796.891383 33279.312133 32194.059181 48289.312208 19287.389165 25243.134329 28475.809152 28591.100493 25512.168234 23997.450536 19386.243524 27883.456882 20270.583589 26111.635320 23276.504844 32913.840265 34020.327863 19320.468137 26659.004437 30422.531007 27082.502392 25514.573801 24423.446876 26947.572847 28191.505180 26098.395641 24436.957307 19801.661107 24681.712450 50455.023649 18080.684404 23533.292464 29207.895155 24288.917777 29637.684477 19416.466761 25330.562212 23711.273356 23157.930781 25339.988884 21638.438552 21079.311013 24112.116241 16576.456597 19111.165801 23043.158628 27086.280288 22420.909295 25712.043107 25047.766760 24183.843672 25915.089011 28153.857559 20427.981932 19358.125024 20858.699780 15996.650449 17461.265670 20724.115145 27817.153856 21281.942824 22515.070565 19826.228348 21623.268327 21733.936883 19619.714961 19802.124531 21137.809552 25842.821610
</DataArray>
<DataArray type="Float64" Name="Velocity" NumberOfComponents="3" format="ascii">