<VTKFile type="PolyData">
<PolyData>
<Piece NumberOfPoints="2177" NumberOfVerts="2177" NumberOfLines="0" NumberOfStrips="0" NumberOfPolys="0">
<PointData>
<DataArray type="Float64" Name="Pressure" format="ascii">
 12883.751002 12802.759835 12648.121497 12450.587634 12163.531597 11652.863171 10855.135144 9922.257472 9081.980977 8376.642042 7671.250556 6895.584062 5964.072053 4697.464084 3032.096146 1297.348649 -136.934736 -721.826689 -491.334121 -307.031699 -838.613897 -1845.633792 -2661.802114 -3136.677169 -3387.116011 -3510.361660 -3555.132714 -3532.780858 -3441.225400 -3285.012121 -3079.809404 -2844.298735 -2594.722045 -2343.304339 -2098.318139 -1864.907734 -1646.047814 -1443.316194 -1257.407745 -1088.441287 -936.136924 -799.923829 -679.013970 -572.459184 -479.198923 -398.101427 -327.999586 -267.723459 -216.134971 -172.181588 -135.017377 -104.261444 -80.285623 -63.687072 -53.990164 -49.856262 12880.231190 12710.189942 12489.376076 12409.030075 12177.112069 11560.763726 10604.357446 9507.588361 8641.376853 8067.828530 7387.315520 6668.722350 5952.973352 4843.904535 2750.100495 857.457035 -1414.486110 -1769.729717 -613.033421 -28.998228 -1201.689464 -2841.869910 -3228.297962 -3399.454531 -3494.366224 -3554.375368 -3574.939591 -3545.968029 -3450.769737 -3289.019087 -3081.123606 -2844.709651 -2594.933418 -2343.511858 -2098.558049 -1865.175018 -1646.330951 -1443.605266 -1257.695286 -1088.721723 -936.406041 -800.178451 -679.251759 -572.678481 -479.398513 -398.280003 -328.154216 -267.844755 -216.191672 -172.073469 -134.442632 -102.635670 -77.182241 -60.651408 -51.804910 -48.282265 12817.396746 12287.039061 11727.425859 12660.114957 12709.259259 11519.631810 10310.931476 8792.348433 7438.924849 7479.434123 6518.970035 5910.666775 5605.979466 5860.726849 1770.931565 577.465772 -4781.583027 -4224.548326 428.781860 347.114579 -1980.615359 -5149.469215 -4384.053722 -3756.152554 -3627.072607 -3606.839061 -3599.899353 -3569.867449 -3475.487549 -3297.127776 -3083.557026 -2845.511847 -2595.122900 -2343.439418 -2098.364176 -1864.923470 -1646.053170 -1443.318000 -1257.408346 -1088.441482 -936.136979 -799.923819 -679.013876 -572.458851 -479.197813 -398.097741 -327.987363 -267.682940 -216.000738 -171.736373 -133.556308 -99.139752 -69.564249 -54.681450 -48.092545 -45.678502 -53.729584 -47.060957 -44.131800 -41.370189 -39.043449 -37.607168 -30.795138 -30.235868 -29.696309 -23.316178 -23.168330 -22.982081 -17.643143 -17.611964 -17.542219 -13.288677 -13.289207 -13.258169 -9.945808 -9.953733 -9.936589 -7.391978 -7.400421 -7.389193 -5.454066 -5.461292 -5.453224 -3.994501 -4.000268 -3.994247 -2.903742 -2.908207 -2.903665 -2.095025 -2.098425 -2.095002 -1.500184 -1.502742 -1.500177 -1.066142 -1.068047 -1.066140 -0.751959 -0.753366 -0.751958 -0.526353 -0.527382 -0.526352 -0.365645 -0.366391 -0.365645 -0.252080 -0.252617 -0.252080 -0.172470 -0.172853 -0.172470 -0.117107 -0.117377 -0.117107 -0.078912 -0.079102 -0.078912 -0.052772 -0.052903 -0.052772 -0.035023 -0.035114 -0.035023 -0.023067 -0.023130 -0.023067 -0.015078 -0.015120 -0.015078 -0.009781 -0.009810 -0.009781 -0.006297 -0.006316 -0.006297 -0.004023 -0.004036 -0.004023 -0.002551 -0.002559 -0.002551 -0.001606 -0.001611 -0.001606 -0.001003 -0.001006 -0.001003 -0.000622 -0.000624 -0.000622 -0.000382 -0.000384 -0.000382 -0.000234 -0.000234 -0.000234 -0.000142 -0.000142 -0.000142 -0.000085 -0.000085 -0.000085 -0.000051 -0.000051 -0.000051 -0.000030 -0.000030 -0.000030 -0.000018 -0.000018 -0.000018 -0.000010 -0.000010 -0.000010 -0.000006 -0.000006 -0.000006 -0.000003 -0.000003 -0.000003 -0.000002 -0.000002 -0.000002 -0.000001 -0.000001 -0.000001 -0.000001 -0.000001 -0.000001 -0.000000 -0.000000 -0.000000 -0.000000 -0.000000 -0.000000 -0.000000 -0.000000 -0.000000 -0.000000 -0.000000 -0.000000 -0.000000 -0.000000 -0.000000 -0.000000 -0.000000 -0.000000 -0.000000 -0.000000 -0.000000 -0.000000 -0.000000 -0.000000 -0.000000 -0.000000 -0.000000 -0.000000 -0.000000 -0.000000 -0.000000 -0.000000 -0.000000 -0.000000 -0.000000 -0.000000 -0.000000 -0.000000 -0.000000 -0.000000 -0.000000 -0.000000 -0.000000 -0.000000 -0.000000 -0.000000 -0.000000 -0.000000 -0.000000 -0.000000 -0.000000 -0.000000 -0.000000 -0.000000 -0.000000 -0.000000 -0.000000 -0.000000 -0.000000 -0.000000 -0.000000 -0.000000 -0.000000 -0.000000 -0.000000 -0.000000 -0.000000 -0.000000 -0.000000 -0.000000 -0.000000 -0.000000 -0.000001 -0.000001 -0.000001 -0.000001 -0.000001 -0.000001 -0.000002 -0.000002 -0.000002 -0.000004 -0.000004 -0.000004 -0.000006 -0.000006 -0.000006 -0.000011 -0.000011 -0.000011 -0.000019 -0.000019 -0.000019 -0.000031 -0.000031 -0.000031 -0.000052 -0.000052 -0.000052 -0.000086 -0.000086 -0.000086 -0.000141 -0.000142 -0.000141 -0.000231 -0.000232 -0.000231 -0.000373 -0.000375 -0.000373 -0.000600 -0.000602 -0.000600 -0.000957 -0.000960 -0.000957 -0.001514 -0.001519 -0.001514 -0.002378 -0.002385 -0.002378 -0.003706 -0.003717 -0.003706 -0.005731 -0.005747 -0.005731 -0.008792 -0.008816 -0.008792 -0.013375 -0.013409 -0.013375 -0.020147 -0.020197 -0.020148 -0.029947 -0.030018 -0.029960 -0.043554 -0.043666 -0.043633 -0.060678 -0.060940 -0.061130 -0.076489 -0.077523 -0.078858 -0.070741 -0.075858 -0.082436 0.024606 -0.001184 -0.030528 0.420612 0.293904 0.171014 1.775992 1.148704 0.677009 6.088367 2.944292 1.550474 10.504343 4.342107 2.079484 15670.798761 15042.041588 14452.036632 14423.389730 15073.539102 15511.372577 14757.037599 15655.909845 15450.972390 13270.651015 11198.148909 11450.104376 12417.747072 10073.525577 10056.117284 10495.933429 10380.392105 8198.878373 9107.925920 9035.162245 6425.674990 4194.767360 6156.015223 1032.683799 -175.858487 2251.117693 5436.404636 555.544402 -4188.168030 -878.550259 3832.028321 4208.675001 -5299.081856 -3396.504558 -558.563746 -97.308092 70.378404 14.834794 418.286096 466.925285 585.967190 1109.173697 1017.694264 903.580744 983.068126 1149.076503 1181.307072 913.643431 553.755008 302.339324 151.805896 65.007610 20.226195 7.217067 3.127578 1.694742 16088.896348 15421.218041 14619.917547 15037.333905 14059.583620 13989.239618 15813.466704 15757.406395 15093.068841 13343.439083 12517.410649 13481.309733 13803.540144 13191.116128 12775.659958 12507.740458 11969.897582 11042.308785 10701.115954 10027.878241 8826.034285 7418.076595 6072.670447 3989.800595 2716.396586 2686.988711 2940.077681 1982.010743 602.302036 634.675051 1465.429371 1340.319692 -666.551736 -812.920454 -202.679223 143.442556 147.123563 114.229905 234.690910 534.157560 884.860195 1049.867963 985.551093 900.133408 952.721645 1083.843314 1054.280767 808.097499 514.767585 291.005015 149.824965 68.782979 26.232306 9.535229 3.691954 1.821689 16743.626343 16241.130309 15531.748174 15240.754122 15132.859893 15803.513509 16811.779490 16910.705534 16393.759730 15556.480190 15046.474250 14950.327696 14879.798381 14526.731635 14039.427958 13558.631144 13013.755508 12322.021970 11605.822914 10781.119065 9675.839892 8246.625810 6596.261396 4829.101117 3493.636736 2937.382523 2765.779657 2310.637042 1633.415051 1301.130071 1270.458752 992.743731 333.349519 28.841163 128.119066 235.807532 228.578074 214.637146 331.896876 603.767702 889.489231 1008.940666 958.035667 887.487717 904.667048 960.264049 910.011883 716.305891 475.589521 277.236648 145.875071 69.511278 29.492858 11.310681 4.179104 1.901167 12753.378330 11607.512190 10773.616586 13884.262699 13641.169339 11813.563233 11133.518138 8845.498464 6662.057840 7462.869334 5615.835394 5466.124283 4926.846654 7383.411849 2219.900636 -113.462183 -7938.888268 -4875.544045 3771.590004 -1442.176131 -3324.398687 -5693.064585 -4755.975842 -3860.687402 -3664.146001 -3621.457443 -3607.680417 -3581.950993 12729.738256 9974.549701 8069.237133 12915.548658 13345.544005 12959.421496 14566.991080 9060.315617 15318.830326 12718.122147 12248.217062 8197.034941 12182.558271 12377.641993 18223.258928 9383.495885 14892.065456 12719.181264 12030.036669 16606.965371 14641.187990 10065.880280 14485.848458 15975.468644 14506.062413 13825.700816 -3172.754114 -4403.801082 13126.669392 10129.646612 7619.341481 13335.600897 7351.942144 8953.615599 10249.084780 10674.237066 11515.743712 7568.381311 13438.851202 14676.214524 8363.445227 11974.342459 9473.790634 14575.143417 10317.891861 12224.578124 10490.797753 9674.363738 13182.320090 13860.671508 12211.334369 13046.686627 8086.330598 5746.690265 9567.810487 5129.026705 13733.821987 13130.547783 13399.001757 9861.520540 12599.084096 9647.964059 8402.620427 4979.298153 14158.969234 6924.368250 12319.308666 14025.462311 8353.048479 5121.007081 9490.161536 4365.510992 6731.794367 3765.893422 10677.746468 14035.040017 5025.054666 14101.001336 12287.888705 7698.101034 7176.223682 7988.317086 4448.989745 -26.763987 14088.377501 13736.640031 13866.013718 12789.164729 12380.430528 13872.848087 14559.563808 13534.979520 15897.271517 13462.760206 8868.293614 7639.269659 8375.716859 3025.391426 12411.409915 7107.701700 9223.796425 13015.029324 8355.259414 6710.484148 4278.205013 9430.642891 5728.919126 489.317457 441.395534 3841.160042 3098.710458 573.422201 14329.885477 12904.969604 11535.027100 15566.890401 15644.169187 12909.215909 13381.376491 14901.790923 12597.450689 7439.469303 4381.252635 7465.346412 3381.498802 5888.952242 11788.819655 8145.780730 4670.569439 531.077163 5124.935291 3212.181808 8236.235061 1807.438070 7209.002222 4710.731722 7121.213496 3348.022778 3109.592297 4011.315016 14624.352204 13688.256866 11413.917890 14482.511009 12287.965877 10549.681987 12032.943420 9703.335802 10999.766072 11624.326190 10725.045695 11590.236060 9925.173791 7171.228269 6237.568518 7093.256146 10221.530476 7224.977678 10095.015579 5893.382303 4366.996298 4736.930428 4097.288266 3850.971521 4683.730166 5005.755029 2710.134864 237.369970 14846.217975 14487.934396 13189.862259 11761.715284 15649.040553 12611.866184 13146.015332 7662.488467 11618.010027 7328.558181 7754.688058 6858.577631 8466.420781 11327.236807 12172.732731 10093.115903 5238.077122 9542.022114 8129.781116 4524.006548 6055.256946 9077.183853 2969.093201 7646.369045 4602.054199 3621.166294 8688.729037 1596.059045 14916.058999 14684.793527 14144.931919 14185.819275 10473.907686 13630.387319 10068.648850 13503.204117 11218.209637 11936.978592 11290.280972 12418.393076 9337.111772 8104.340250 7169.595189 9192.644362 7991.549415 7422.363277 3416.197829 4659.539587 6219.399520 3812.834041 3012.437968 5931.926795 9161.774517 860.798455 4795.424678 994.692707 15062.737502 15320.356508 14639.238364 10529.065211 13758.152049 11954.156479 11561.049493 10617.463373 10407.368771 9527.993332 8030.792184 7577.429099 7814.586686 9969.448134 5154.111791 6593.211880 3791.144067 6737.958300 5410.352871 8063.629355 5164.179836 3323.977523 3164.060265 6582.007938 3865.251469 3038.993677 1486.731927 3320.892019 15315.435914 15634.898609 15460.498395 12666.061798 10587.398969 11066.134691 9480.921116 11724.755589 6944.366728 11198.506541 5547.567006 10794.232996 4288.848678 3928.224246 7014.594348 7855.071710 6177.278511 6643.242036 4148.490638 6539.581471 6441.429020 1603.469677 4941.065179 5091.727007 2114.539160 5627.391130 5657.818448 404.234215 15462.611007 15575.738373 15746.761565 13379.145326 12019.359719 12026.543027 10993.355073 10931.756744 7717.372778 8886.652754 118.593312 10347.701097 5970.100433 9389.196185 5219.220147 5905.348842 9421.443062 1239.960992 1995.009913 2790.967757 5126.516867 8738.364635 1802.626686 6513.189680 3595.737455 2824.474760 831.251811 1784.423423 15514.463635 15747.789688 16086.577753 12544.567274 13179.990208 10984.962926 10530.750718 10027.163118 7240.045696 9430.858364 5724.227592 9106.743899 7419.185521 3287.405961 8779.598413 1258.286689 4736.626257 1222.379637 4492.858121 9248.325857 5850.317336 4857.527080 7699.221615 4226.145154 2244.111417 1039.520384 2618.935189 3310.736496 15529.075075 15578.126445 15851.529107 13897.543135 12671.292954 13236.876082 12019.135552 12098.363368 9516.809726 10189.389806 6523.587460 4576.971452 1005.205886 1764.268849 947.827281 3978.745519 3517.781877 2024.396553 2319.505950 806.650669 3458.788928 2188.087882 2111.614661 6056.366742 1469.325105 4704.333597 3799.263951 2664.184126 15536.572699 15421.409723 15367.410522 14040.802337 11670.933280 12837.495905 12843.389383 10512.183360 11979.422752 9258.243900 4372.501159 3578.900201 1815.978645 679.685251 1900.968644 2244.688500 1943.813414 613.526240 287.282633 2688.380307 115.862841 1354.390226 2158.484384 1616.631505 3112.037007 2246.433963 1655.460809 2687.179671 15563.541327 15489.800050 15226.259781 13077.373620 13197.234190 13025.509000 10431.253314 9961.597209 8804.237871 6870.453720 2208.230223 1219.352513 2028.862038 15587.255385 15689.594149 15514.072515 13302.943455 11672.968302 13222.692861 10590.397104 10735.100660 11708.781366 7665.065303 642.333706 1554.870603 1947.753583 15538.865277 15716.414481 16098.775915 12777.801180 10939.083910 8566.850329 5244.906182 8819.446258 3795.515772 2388.539380 6139.564977 1705.950475 6595.457057 15481.236890 15778.652295 15707.764786 11259.713516 11764.650998 11879.832171 7767.337638 5780.494551 3187.907819 3818.210868 1205.976118 1461.823403 2475.501335 15382.789780 15791.137170 15392.867903 13201.592411 10715.986032 8848.871483 8452.130630 4156.829455 1657.742306 4350.400728 6821.652583 514.937075 1883.407618 15101.893807 15265.454301 14807.203171 13320.197529 12763.494446 10990.678574 8988.741805 9161.786345 3010.549363 1373.905468 6792.437886 2413.569817 1869.280053 14794.681945 14894.564117 15029.937894 13937.817524 11898.679124 10860.321967 6033.279020 6927.566649 2392.152598 4878.858622 5068.579883 744.027523 3236.494617 14697.750878 14721.698604 14029.418776 13273.097480 12080.179196 3641.285022 941.163620 3551.904775 2416.044967 5467.942956 2894.001663 3370.028959 2316.627106 14911.443513 14874.044492 13897.113996 12065.061197 10491.259125 6658.528012 7867.581347 8216.333416 7336.711842 3807.807893 1731.315967 1353.901607 1468.454693 15226.908877 15551.604523 15563.322297 14507.096608 12947.650574 9795.595314 12184.018093 8144.758347 5602.074596 4798.674501 4116.145028 4630.658260 8108.633649 15276.250408 15022.705090 14097.816975 11834.418393 10942.218488 10395.046383 7623.312331 9199.657697 6016.847268 11937.436427 3230.918806 5960.842310 -11853.829557 15142.505894 15378.638433 15069.247009 11703.250131 13082.910611 10933.031983 8981.551525 7678.481534 5372.965093 7051.386473 7233.904770 1614.425181 4032.377901 14862.074125 14783.698383 14650.529897 15203.397014 11785.833626 14313.640192 10195.019659 10197.514565 1733.479139 5719.229011 6455.911048 3238.041148 1467.887596 14620.989891 14314.579735 13786.084273 12370.630024 10359.064602 9149.357734 13878.210601 10354.816586 2756.530308 11231.500354 4826.733794 3919.352380 3892.115441 14626.753792 14074.894219 13203.010752 14667.744973 13788.497702 12601.977284 12285.591865 14456.666486 9502.147348 11622.384516 1700.031493 6427.345061 926.643904 14850.215094 14243.062769 13429.618071 13701.293262 14141.727606 18444.113826 14848.271131 14755.666608 12911.218013 11805.495196 4809.911114 1914.210664 1467.818516 15132.443872 14497.116512 13841.687960 9678.633025 15136.633199 16050.718481 10659.889432 14037.208111 7313.271964 7457.831446 3428.303374 2423.257100 1539.131495 15371.506729 15096.598563 14493.204786 15525.771098 13721.171992 12749.721834 13521.569766 9080.931603 10407.728789 16107.898481 5658.242273 3414.929365 925.964666 15484.475077 15152.577607 14430.114304 13803.195766 17992.324905 17610.961270 11140.091465 11353.744639 10152.568676 4124.466841 6136.307948 6666.848245 3175.620881 15472.643811 14883.321297 13497.810930 15835.777351 19397.448920 14015.805382 15056.719728 10290.356232 8532.403639 8218.114217 8450.665611 6335.089630 671.137095 15390.929569 14556.269015 12890.396880 14802.757758 16302.151664 16429.441322 14240.350781 5930.544642 11734.293808 7562.095362 6033.556238 2884.438973 2539.431882 15266.828467 14537.910597 13633.863109 16695.089879 17525.118432 15297.794481 11713.977807 11844.052827 9794.449859 7005.364188 6318.397152 4498.917497 4611.175836 15143.158389 14336.587924 13597.366659 16735.923850 17646.325010 14261.718764 12049.206841 13350.217284 13180.852015 7412.441304 4983.315414 2824.340582 -6388.188732 15185.018293 14322.708093 13789.235808 17072.567003 15632.512068 12878.918966 14204.167545 8968.678369 7576.806452 5947.865092 5251.426548 4480.776022 884.580035 15413.070076 14986.829049 14529.239652 17424.457456 16170.534192 15333.889343 8978.496881 12002.872927 7592.055210 7314.991452 5129.504409 2573.814835 750.335133 15574.413707 14785.399098 13733.945425 18928.191640 18541.196506 9520.051822 11367.077720 11171.333057 14785.185186 8627.356221 5604.214249 3524.577668 3367.867776 15637.238470 14699.382225 13712.829713 16209.732869 17128.112819 15900.605531 10545.925715 17321.196414 8786.653652 13793.563223 1603.570371 2482.045372 -5515.659706 15709.425582 15124.976736 14555.419540 18965.939487 14927.113411 15632.706038 9526.208879 10080.663311 8580.587417 7492.228470 5544.795540 6495.404242 4343.246731 15939.758917 16212.541050 16132.804092 16942.002774 16139.513656 11631.193650 18576.890580 15074.698590 10661.408506 6987.764527 4329.994048 3194.237141 3068.912264 16192.563544 16334.113992 16555.322561 17374.507825 19612.747233 15391.482911 18208.458271 16313.256203 7331.070236 8423.430550 4814.602788 5344.401326 57.455427 16301.077320 16160.472042 16213.964486 20144.776561 18629.316334 12897.665204 13303.938474 16530.904083 15856.798911 8496.843851 8202.519620 4715.332642 3857.277408 16328.587745 16423.825884 15956.564256 19426.037030 14850.495945 13366.410397 15308.210082 15110.795206 5634.701047 3785.148383 7322.834207 7711.120343 -473.795355 16406.045862 16973.461831 17269.000507 20127.570012 19416.672814 18162.591687 10358.519876 11688.307132 9888.302655 4043.359359 4670.856591 5365.057874 4570.084267 16562.662327 17023.899524 17399.670307 21971.285038 15603.324078 17216.982938 13108.922142 11772.169574 12903.253954 10335.984632 11611.559517 5299.887901 1661.698368 16826.648704 16967.632631 17191.782300 18151.401830 19820.594350 12599.036859 16066.879386 14540.951372 12294.773619 10798.559385 9143.537864 1061.251714 5184.228170 17164.247093 17012.222000 17066.066361 21263.459287 19830.041891 19492.139014 16251.342621 14865.699616 9055.994317 5336.569344 4938.984627 4911.880706 4209.619990 17432.888150 16771.085631 16246.537310 20856.215316 21047.886185 14662.194666 16611.114303 20021.385292 8637.786136 6350.379571 7246.642011 5613.973844 778.644569 17508.450442 16107.157508 13735.803924 19385.344715 21325.832310 17439.132344 18207.841850 8281.973379 8698.003818 9228.609619 5196.999596 5194.705814 923.721742 17534.662932 16608.985959 15505.155002 20772.269038 21794.320368 16452.943328 9925.690778 7213.903554 10073.234856 9609.429104 5795.637785 2277.771117 1135.399350 17368.742380 17145.146265 16641.915065 20512.756055 19442.279655 18835.808680 16433.646370 7925.260959 11903.466368 7475.141868 1398.638224 2778.992093 2648.837762 17040.542233 16931.460756 18066.551324 21939.888767 21616.673020 18584.487483 16687.585672 13267.816158 14305.219166 10350.177433 6407.751759 4611.052574 -8.036689 16906.762143 16981.888500 19036.400779 19650.417294 20897.109197 19010.267684 17637.322851 13660.959044 13044.043301 11222.131332 10131.542270 8166.073857 2657.019253 17154.822683 17493.139697 19215.196160 22226.045769 24474.278854 19534.592197 17410.373148 14142.442013 14561.112787 6929.969592 8688.768341 2010.423444 7781.428950 17632.758329 18177.011307 19117.005023 21553.658115 24149.034756 20962.338847 17470.580081 12599.554396 9415.289326 13053.243553 4477.014090 2053.432361 787.253492 18109.057451 18675.757614 19706.710601 23267.741825 18943.590873 18309.955950 13980.517708 12987.198110 10015.041856 8142.219886 2504.332124 262.049652 3140.262953 18529.136015 18869.483419 20183.512483 18642.339030 19370.344094 18474.970537 14517.556571 16164.407083 11260.392208 7972.070509 4529.301016 2130.970684 723.765031 18962.242944 19069.447347 19692.254351 21826.695844 18280.264819 14643.587376 11311.445143 16766.210293 14759.757035 8297.133094 5849.833432 4938.438831 -115.210179 19450.669388 19865.527740 20648.078450 21590.563496 21065.085019 17521.310702 16989.291794 13180.755912 11649.789214 11030.132681 5335.623198 3837.107235 797.083371 19761.189630 20498.173709 22357.280215 23483.861576 21252.749206 20316.006211 17406.828984 13924.517981 12527.640828 12570.933525 4844.509433 2609.154749 2821.147789 19760.165229 20072.842686 21841.208303 23097.041495 20613.971744 18742.909712 18940.005182 15764.314429 14272.381498 12990.253239 7032.605627 7223.416409 6572.561521 19740.530111 19406.458044 18776.801258 24855.811251 20406.018988 18176.589947 17743.541728 17375.252035 12069.664996 8089.600713 8814.439106 4491.791761 -495.982376 19907.411886 19664.173996 19403.809453 22092.381357 22361.978077 19138.592106 19045.365028 18225.079941 14290.757348 10023.025941 9266.368306 5457.729784 2932.762993 20052.029673 19624.705487 19407.167789 23995.786777 22589.655813 20858.515869 18392.372117 16332.903895 12659.945954 8894.321413 5797.294630 1661.464748 349.806513 20153.856285 20087.065691 20391.539956 22185.518527 22745.530045 17728.754316 14949.690767 13944.537064 11533.831080 7525.339999 9753.870318 -156.804444 4435.891268 20175.117125 19802.178670 19943.252975 25640.554044 22401.546890 21176.390319 19129.210108 13486.093026 11705.283422 10070.281977 7478.073778 288.152987 266.358807 20154.886079 19050.259932 19283.274141 22556.785295 23022.066853 21471.680370 19581.204109 11954.304420 9762.455637 8367.551804 4781.982417 7721.002820 -5034.816130 20271.602018 19091.653823 18777.856688 21304.069300 20555.234336 20525.190142 19447.113300 17025.635207 14956.992355 10657.920813 7280.465364 1516.321402 3119.698691 20601.125977 21403.719507 23348.963918 23805.582891 21029.748413 20735.178913 19016.966289 15194.874191 12338.628978 8988.483928 5852.233172 852.631149 -1015.345801 20896.986351 22167.075429 25098.383426 22391.643406 21842.599296 20200.900319 15855.374310 13012.856428 6488.866597 6942.549506 2900.380254 7173.334929 3063.245612 21188.805631 22113.023722 23647.540060 23864.497636 22608.115044 19058.068117 19106.665225 17420.799853 9275.333914 10810.228998 3959.497718 6715.447465 51.515319 21531.426193 22287.654042 22698.298533 23655.605592 20527.396956 17897.450390 16890.731775 14442.749161 13017.979453 6014.730524 5240.922501 2657.327282 446.148050 21919.804088 23073.463599 23574.243074 23542.049440 21471.414347 21068.796561 16494.720296 15297.100735 10412.220143 6865.690308 1205.393491 -2111.274159 2185.777465 22289.221271 24055.490019 26324.877159 23149.254320 22038.489973 19805.978988 18674.152756 14483.155555 13888.633969 8438.097457 6163.405229 -373.368535 7699.535346 22609.840030 24066.337213 26236.866275 22471.173553 23294.920034 18982.254690 16078.049623 16641.292970 11825.021560 8400.510795 2438.921713 -449.442154 8020.508525 23093.457363 23827.358766 25712.515804 23294.603358 22147.442279 20336.769885 20263.470770 15759.642040 9323.020527 11400.071224 5241.828158 2899.158150 6565.442103 23682.246983 24110.480502 25648.434201 24212.677354 22220.223387 21478.106603 17181.408913 20837.749021 10556.378839 9443.691965 5714.985579 3806.280558 4941.949754 24071.536300 24097.618938 23643.235837 23007.787609 21310.451847 21017.970025 17051.966577 15011.761889 13892.944364 9168.965233 3106.832106 2330.381278 3397.633945 24321.021024 23935.674064 22703.861335 22774.678289 21843.090199 20423.543554 19653.056507 19661.687331 9023.573352 7186.039113 7406.273783 4889.752993 -11853.829557 24634.018037 24982.450753 24953.803838 24771.126352 19684.840217 19796.125633 16143.584733 17637.387593 10433.346105 10637.208163 8901.216397 3959.186022 7004.049883 24795.217116 24172.643180 22521.682498 23707.522110 22810.876643 18912.712130 16742.676448 12843.159710 11335.142226 14089.521942 5967.178343 4908.079432 -2058.056559 24842.588551 23234.194235 21240.933805 21223.431798 23847.543184 18183.787117 19391.655070 17994.045373 15369.709015 14493.056141 3199.787940 1880.777130 2080.191260 25027.412735 24308.041228 23526.377031 21265.329350 22582.655148 17694.747023 18874.775070 14108.613106 12770.524614 8233.034362 7194.910586 5617.908305 6979.148558 25301.916757 25679.569113 26388.245286 21182.723441 16160.152725 17371.040501 17938.526563 12685.000496 11438.404431 9715.883755 6023.720337 4263.938464 8957.699456 25277.043580 26313.952372 27559.928069 17165.076807 19456.811003 15260.002898 16265.249387 12004.981418 10518.111607 11778.925302 8169.890268 6672.965683 4112.473711 24823.176039 25288.989999 25353.713200 23152.370374 18208.804538 16648.679738 13419.562172 16664.316224 13444.874822 10378.451392 9331.941872 6817.492161 8580.769357 24233.307202 24513.399034 23005.622268 18144.452563 16583.460047 15950.678404 13747.433938 14737.645755 12211.270456 8898.682767 9944.260473 8894.739932 -1994.809102 23365.981471 24249.994514 22971.299235 18244.669465 16838.531290 15725.132469 17664.263858 11084.751357 14411.575985 8324.755853 7042.882253 5323.965654 -479.433221 21805.271228 20898.693258 18330.063233 19747.810766 16116.075466 17939.089794 16633.808393 16657.521203 12420.966066 10881.494872 11029.137992 9317.334216 11149.372808 20284.736388 19323.784339 17893.213046 17935.346336 17265.558331 15856.823207 14583.450840 11623.931759 15883.839343 10372.435665 10530.258137 11416.843443 -1272.354290 19401.907129 17536.675356 13998.145386 17752.603039 17314.913740 16170.175675 15950.609780 11436.019969 14445.552922 10286.148602 11506.275321 10484.109063 3160.324800 18791.502809 17752.395670 14498.649130 17542.399653 16856.615105 12714.954895 19372.710697 16965.584663 18702.055592 20568.559826 12847.964872 11142.062947 7802.666265 17696.837848 14100.232093 8271.373450 15497.735773 17787.332878 16394.858750 15507.263850 19684.854064 15985.829916 18118.970076 14721.718962 9848.406768 3108.190921 16615.771605 14456.741168 11006.468493 19177.493868 18658.159654 14427.811696 18847.395253 12551.844125 13683.985806 17696.243146 13652.292931 16403.972102 9001.392158 15947.167897 18626.623712 22228.270073 15319.756486 22108.303474 21133.154560 19697.426401 13438.177529 15439.139484 16581.142996 13264.287619 12659.871334 15226.507453 15672.116458 17390.587601 21543.659580 16047.991419 16941.953572 17383.867897 13455.856205 17244.537189 12984.885792 20361.451346 20237.164192 15616.254944 18981.564493 15670.798761 15042.041588 14452.036632 20874.213269 20430.157406 16635.488561 17621.667674 17733.998209 20626.109009 16720.295957 15527.197601 15234.810457 15404.222833
</DataArray>
<DataArray type="Float64" Name="Velocity" NumberOfComponents="3" format="ascii">