<VTKFile type="PolyData">
<PolyData>
<Piece NumberOfPoints="2177" NumberOfVerts="2177" NumberOfLines="0" NumberOfStrips="0" NumberOfPolys="0">
<PointData>
<DataArray type="Float64" Name="Pressure" format="ascii">
 22512.891041 22488.097813 22401.817167 22214.043071 21875.796084 21373.816360 20691.287393 19814.090244 18823.282716 17817.957204 16787.664239 15659.410475 14428.981033 13095.727104 11716.709888 10292.896790 8752.552011 7163.345303 5634.273681 4111.673900 2551.928784 1205.224873 261.497279 -269.179381 -509.001292 -611.205081 -692.938876 -819.243269 -1011.127244 -1254.199701 -1512.644325 -1750.858728 -1943.892697 -2078.624680 -2151.922625 -2167.846331 -2134.791612 -2063.056948 -1963.052915 -1844.178369 -1714.264768 -1579.435212 -1444.221125 -1311.806543 -1184.308885 -1063.042781 -948.743629 -841.749860 -742.164033 -650.050169 -565.818325 -491.016138 -429.242752 -384.671054 -357.981596 -346.543206 22657.849190 22648.495558 22637.558100 22602.922340 22256.029721 21640.026908 20832.797679 19761.569541 18606.359529 17622.513407 16743.312250 15711.273083 14550.348245 13170.911130 11840.500035 10454.109218 8634.779119 6720.374997 5163.876299 3572.007508 1649.059134 236.332014 -534.009103 -811.142014 -827.159966 -782.256132 -775.109174 -847.669587 -1014.227944 -1253.386805 -1511.649707 -1749.861042 -1942.834335 -2077.572845 -2150.963260 -2167.039375 -2134.162917 -2062.604632 -1962.757454 -1844.011876 -1714.197800 -1579.440885 -1444.276993 -1311.894884 -1184.415835 -1063.156151 -948.847531 -841.809272 -742.077214 -649.505183 -563.891736 -485.875183 -419.335912 -374.254260 -349.694027 -340.037607 22874.771800 22816.274732 23087.486179 23730.960186 23302.813821 22416.843674 21190.184359 19590.932006 18140.418859 17013.047425 16528.054726 15431.938663 15233.456208 13111.071523 12381.741910 11372.236965 8419.130476 5557.876107 4790.816763 3332.243335 -431.543049 -1210.838561 -1713.350686 -1549.904947 -1218.150941 -981.807563 -867.093945 -869.133024 -998.883734 -1248.573479 -1511.050965 -1750.365017 -1943.735649 -2078.572103 -2151.904000 -2167.839367 -2134.788897 -2063.055862 -1963.052475 -1844.178183 -1714.264667 -1579.435082 -1444.220776 -1311.805430 -1184.305248 -1063.030865 -948.704590 -841.621972 -741.745248 -648.677166 -561.359067 -475.634461 -395.997190 -354.081035 -335.481282 -329.173314 -348.853910 -329.596516 -321.614224 -304.400090 -297.504683 -293.558167 -260.710140 -259.051788 -257.504334 -225.010316 -224.564258 -224.023291 -194.091369 -193.997593 -193.789382 -167.043587 -167.050520 -166.951117 -143.348887 -143.382751 -143.320579 -122.630073 -122.668795 -122.621408 -104.566959 -104.604066 -104.564307 -88.871937 -88.905701 -88.871125 -75.282348 -75.312481 -75.282100 -63.557800 -63.584446 -63.557724 -53.478858 -53.502286 -53.478835 -44.846066 -44.866567 -44.846059 -37.478972 -37.496836 -37.478970 -31.215114 -31.230615 -31.215113 -25.908935 -25.922329 -25.908934 -21.430661 -21.442188 -21.430661 -17.665158 -17.675037 -17.665158 -14.510768 -14.519199 -14.510768 -11.878172 -11.885338 -11.878172 -9.689266 -9.695332 -9.689266 -7.876084 -7.881198 -7.876084 -6.379758 -6.384052 -6.379758 -5.149549 -5.153138 -5.149549 -4.141921 -4.144909 -4.141921 -3.319701 -3.322179 -3.319701 -2.651293 -2.653339 -2.651293 -2.109964 -2.111647 -2.109964 -1.673200 -1.674579 -1.673200 -1.322129 -1.323254 -1.322129 -1.040998 -1.041912 -1.040998 -0.816720 -0.817459 -0.816720 -0.638471 -0.639067 -0.638471 -0.497337 -0.497815 -0.497337 -0.386011 -0.386393 -0.386011 -0.298528 -0.298832 -0.298528 -0.230040 -0.230281 -0.230040 -0.176624 -0.176815 -0.176624 -0.135120 -0.135270 -0.135120 -0.102993 -0.103110 -0.102993 -0.078216 -0.078307 -0.078216 -0.059177 -0.059248 -0.059177 -0.044599 -0.044654 -0.044599 -0.033474 -0.033516 -0.033474 -0.025006 -0.025039 -0.025006 -0.018574 -0.018598 -0.018574 -0.013686 -0.013704 -0.013686 -0.009957 -0.009971 -0.009957 -0.007083 -0.007093 -0.007083 -0.004816 -0.004823 -0.004816 -0.002953 -0.002956 -0.002953 -0.001314 -0.001315 -0.001314 0.000263 0.000265 0.000263 0.001944 0.001949 0.001944 0.003906 0.003914 0.003906 0.006352 0.006363 0.006352 0.009523 0.009540 0.009523 0.013719 0.013741 0.013719 0.019305 0.019334 0.019305 0.026736 0.026775 0.026736 0.036570 0.036619 0.036570 0.049478 0.049541 0.049478 0.066263 0.066340 0.066263 0.087852 0.087947 0.087852 0.115298 0.115412 0.115298 0.149743 0.149876 0.149743 0.192367 0.192519 0.192367 0.244298 0.244466 0.244298 0.306468 0.306645 0.306468 0.379402 0.379579 0.379402 0.462933 0.463091 0.462933 0.555792 0.555906 0.555792 0.655088 0.655121 0.655088 0.755613 0.755515 0.755613 0.848981 0.848683 0.848981 0.922541 0.921953 0.922541 0.958066 0.957074 0.958066 0.930177 0.928635 0.930177 0.804498 0.802227 0.804498 0.535529 0.532311 0.535529 0.064250 0.059822 0.064250 -0.684543 -0.690489 -0.684543 -1.805100 -1.812923 -1.805100 -3.413757 -3.423867 -3.413757 -5.652036 -5.664892 -5.652035 -8.689726 -8.705835 -8.689722 -12.727796 -12.747707 -12.727782 -18.000993 -18.025282 -18.000947 -24.779947 -24.809190 -24.779797 -33.372601 -33.407302 -33.372112 -44.124809 -44.165197 -44.123213 -57.420083 -57.465488 -57.414878 -73.678911 -73.725774 -73.661940 -93.359587 -93.394988 -93.304263 -116.967384 -116.947740 -116.787061 -145.095860 -144.874823 -144.508128 -178.576669 -177.653215 -176.662851 -219.195330 -215.626117 -212.932217 -269.363172 -255.959176 -249.572351 -298.480886 -276.039661 -265.874842 9191.416244 9209.172898 9222.605868 7883.474512 7425.830519 6344.526578 5805.455813 5496.257396 4505.464571 3952.963604 3470.916089 2290.044669 1733.063813 1361.509655 944.730183 555.504678 189.128646 -157.088677 -483.280502 -788.190018 -1070.242136 -1328.166241 -1561.178940 -1768.895362 -1951.158843 -2107.906445 -2239.110164 -2344.787214 -2425.054761 -2480.202395 -2510.760439 -2517.549412 -2501.703310 -2464.665688 -2408.161877 -2334.153076 -2244.778802 -2142.293707 -2029.003755 -1907.205550 -1779.131423 -1646.901967 -1512.486946 -1377.674900 -1244.051272 -1112.984091 -985.614564 -862.844781 -745.298471 -633.171005 -525.769709 -417.890572 -325.869750 -287.375075 -270.680674 -264.185955 9278.294166 9148.683394 8726.157208 8006.186764 7518.054710 6369.985009 5876.310832 5781.636770 5226.705373 4430.970874 3592.545265 2691.165609 1946.111295 1401.082181 957.235304 559.635678 190.622743 -156.418919 -482.844883 -787.805562 -1069.859054 -1327.775606 -1560.781881 -1768.493792 -1950.753692 -2107.498185 -2238.699700 -2344.376516 -2424.647092 -2479.802197 -2510.372977 -2517.180298 -2501.358024 -2464.349164 -2407.878193 -2333.905265 -2244.568768 -2142.122229 -2028.870559 -1907.109423 -1779.070361 -1646.873346 -1512.487735 -1377.702001 -1244.102268 -1113.059356 -985.723839 -863.028535 -745.698298 -634.273178 -529.189608 -431.456957 -349.400785 -302.370815 -279.465825 -270.563675 9321.393157 9247.386123 9003.835212 8518.235123 7955.082980 7214.312943 6633.107386 6068.838042 5337.549730 4462.701976 3560.006285 2708.249104 1992.576216 1428.237602 967.092232 562.871553 191.507811 -156.329762 -483.037685 -788.111556 -1070.216603 -1328.157951 -1561.176282 -1768.894527 -1951.158586 -2107.906367 -2239.110141 -2344.787207 -2425.054759 -2480.202394 -2510.760439 -2517.549412 -2501.703310 -2464.665688 -2408.161877 -2334.153076 -2244.778802 -2142.293708 -2029.003759 -1907.205564 -1779.131468 -1646.902115 -1512.487430 -1377.676484 -1244.056453 -1113.001041 -985.670001 -863.026068 -745.891034 -635.111152 -532.041805 -439.883846 -365.051631 -314.703474 -286.844860 -275.475065 22933.643934 22708.271281 22945.671019 24156.426965 24960.712327 24008.077479 21835.811663 20043.231230 18485.625656 17019.323249 17097.262845 15427.640331 15487.892237 12916.899091 13423.786493 11929.653294 8431.685952 4149.090183 4491.923430 2432.087997 -2451.956465 -2226.338801 -3046.315591 -1817.022872 -1335.235795 -1036.956457 -890.873153 -868.855354 22939.938115 21661.902773 21223.078202 22745.675369 26136.997117 23752.186643 27175.289152 25907.226127 24816.280333 24678.181320 24233.725176 24302.840541 22696.751275 28405.261895 23705.104202 20619.124550 26128.394219 24534.702488 22385.650092 22994.992452 22598.282239 25029.101306 25751.803127 28308.918883 26891.485766 21770.353193 5779.651961 9660.417989 23152.983205 21442.055700 21969.377928 24659.662984 23954.884986 20822.162788 24203.260679 19842.344117 28084.879618 15426.990575 22362.879183 27450.587658 22495.190976 22529.126531 25753.754927 25133.375328 25676.586990 10924.038880 26886.593819 22695.315664 21248.905411 24512.519879 26246.639001 22568.078761 16876.009338 10456.605279 19550.324165 13057.268444 23822.189485 22484.899887 22292.779760 21519.136734 18964.054824 23928.021975 19906.835044 16089.300616 30273.788161 20292.899802 28383.237749 23956.419231 26260.145327 17930.676320 23677.043328 8983.728666 15423.174885 4663.927225 21067.556648 26322.741478 18036.513029 23653.937862 27066.063830 18739.739920 17595.980729 20404.683843 15687.377729 7100.960213 24581.564868 22925.888118 20230.814063 23448.970025 19193.943708 21593.483200 25245.359414 30944.691038 24905.702765 20590.844164 25163.319507 10416.504412 17256.731390 12543.099125 18684.320560 20730.539958 19067.389378 23876.930818 22887.104865 23798.654908 14960.855867 25142.733858 13726.506074 7957.194700 7678.567954 8703.123925 15062.363779 3004.970157 24801.039670 24701.474915 22631.603572 23597.306561 21678.560546 17112.071791 25730.958596 24869.591417 22185.020091 15269.418817 9366.435795 20469.410654 13692.113264 17245.861454 15202.440811 18462.091059 12038.991794 2241.301400 6882.106780 5947.675646 17592.432994 7960.365634 24000.773830 11606.739531 14565.012365 12441.698118 8202.696052 7090.189065 24009.110592 23662.101968 21641.245731 25972.878386 19740.542931 14316.723431 23332.696957 12948.381101 21212.433611 18711.287707 23492.243008 24744.114678 16341.802196 12281.066888 14347.612858 13971.562175 19503.812808 9647.643657 16694.249179 19472.417309 21427.543758 9565.078258 9064.611699 9341.243037 5871.918197 5499.492462 6608.831961 3609.378698 22910.430327 21290.848515 19502.218976 19666.673392 25550.054765 26867.889687 22094.093297 10642.221496 23309.042988 11969.130954 12306.128677 10692.944375 21147.532884 17465.216898 21628.921182 16236.871684 10865.270954 18035.791486 14990.574132 11790.199942 11490.459124 18203.503839 7137.793680 18527.901047 22273.026002 7973.237280 6123.312318 7378.260775 22708.619976 21920.366407 22379.204400 22999.667401 22808.057423 23627.035139 18894.699128 21724.474012 27978.834414 22509.362393 23420.190644 20105.002922 20129.359408 14543.750947 10735.594278 22266.349609 16221.620738 17026.812287 1049.863561 9298.335709 11858.131514 11701.205615 10011.545554 6801.046096 14500.026585 2424.660835 13487.405148 2843.749633 23360.785445 22401.072051 20695.338960 25015.397743 23442.586877 23551.725490 23360.737289 20370.617791 16573.478548 15965.431839 16389.789018 8978.467247 16889.922839 18287.959541 10403.475378 13018.077324 8480.888527 15674.510534 8281.208457 18301.025415 10180.120734 7830.169089 9790.758227 14917.555628 8359.288878 6128.079476 4770.701251 10633.550684 24080.702808 22857.918739 20754.036471 25238.044350 25784.111584 23536.995373 17484.179091 26405.391147 9501.970271 25824.255215 15089.061285 18666.328105 11170.894175 8657.353823 17186.168307 12812.888890 8738.107573 13883.667964 14721.332562 10710.184802 14073.854380 11276.375913 11083.801054 11036.052861 8388.824884 10133.849774 13744.131543 7339.538387 24656.851152 24343.257553 21610.208107 21999.201914 22716.378245 22056.445532 21307.022973 23182.134030 14321.098513 16675.838345 10344.906545 15799.654083 16356.545217 19161.866624 8400.277754 11728.217360 17867.886913 9192.400364 6666.111702 7269.029959 15027.087856 17068.178153 7396.573991 15079.524706 8855.514810 11151.954925 5529.098188 4830.156693 25054.972024 24524.310110 22398.528140 20552.519505 24942.949925 18376.468633 18189.846331 18733.523632 13235.428730 17884.900654 14412.480582 18129.886080 17850.402129 2740.490665 14097.676290 3601.227910 12765.071329 8211.877707 6587.658445 18241.002570 10096.249092 9322.219034 14223.452560 9575.555440 12194.914318 7473.989422 7561.408380 11062.462449 25066.176931 23076.768592 18822.403455 23216.254802 21856.584808 22911.440584 22740.701195 20104.566556 14593.932640 23561.896772 13846.122965 10358.416905 4961.540731 3082.273710 3305.534195 6802.922798 11863.793861 5259.955824 6833.863319 6341.328013 5362.316188 5468.759260 7155.991521 14648.937390 7814.236308 8606.621949 11930.562570 1418.014676 24676.161982 23807.588361 20471.229382 23607.106750 25193.087880 25598.426066 21907.130082 22716.402041 22408.385598 15558.072427 12160.061083 12055.505005 7314.077020 2196.091227 5723.982181 4646.529881 -3706.037416 9386.158696 2491.131824 3796.376128 7210.321562 1539.433650 2706.949791 6313.724003 11850.443443 3110.143244 4828.871984 4130.331615 23925.865482 23062.228743 21895.033797 21503.503363 25491.981722 21401.094596 21592.782927 18167.048314 15280.138125 14733.106870 12729.128656 3050.468937 4293.907705 23236.172777 22663.256728 23432.961949 21954.343873 21491.401443 21345.279596 20897.872011 17669.278455 20399.972498 7857.619523 4518.038437 6105.053794 3549.389838 22821.866358 23108.410682 23605.586499 22591.180214 19974.108034 15663.686513 7415.579197 18280.011693 11925.136611 6713.150779 10156.167147 9239.645277 9555.219869 22582.759781 21657.234644 22076.829816 21482.660411 21245.528363 19798.284351 15998.401289 16780.623502 7937.068398 7000.584918 2387.735820 2061.209910 5583.559900 22467.960916 21154.967252 20739.568622 21226.253009 19703.900527 15943.213587 13873.714584 11509.814587 7411.059678 10535.850560 12696.295298 1949.958975 2751.028543 22425.992333 22145.595415 22648.510920 21841.219394 20080.660444 21415.867462 13320.696594 16855.053151 5675.747545 5934.467444 12447.409361 4759.470665 4990.992993 22482.386114 23148.241849 24412.558816 20044.603774 19110.022071 18975.288932 13749.085374 10771.368970 9414.860112 13724.494476 12917.799018 5145.961936 6326.217583 22555.954119 23786.367147 24272.499799 22227.092871 17924.523561 10607.457689 6835.426029 6350.972591 7402.763082 11955.905147 9681.808063 8116.119058 3708.211229 22322.960097 22171.214314 20645.630855 18535.246475 16229.232405 10000.734660 12583.935903 12972.279596 10209.928384 10678.845068 6589.596404 3165.239203 2539.603693 21810.585727 20848.043721 19324.503588 23719.876759 17969.841639 19021.399756 19525.354208 8630.060567 10341.763133 8270.233519 8566.857751 5362.154860 13951.938419 21269.145860 21077.214871 20084.603711 20832.776609 14298.702564 15680.992908 10139.855808 10519.995869 10853.471531 13747.465961 8393.852558 7729.432412 8851.253093 20900.530550 20436.484206 19742.301967 19161.121757 20884.827588 16922.859441 15338.445258 15104.198551 8272.761843 11846.819822 11666.355819 5387.279898 4193.420268 20764.619656 20084.368356 19543.606119 20483.385008 17991.911676 20626.589583 14829.622104 15668.602910 8541.100031 12068.687180 12938.765026 5612.230065 2722.886159 20563.702219 19848.958741 19858.817973 18860.822013 16814.488113 16479.327012 18804.976331 15522.446123 8982.640950 16254.929930 6617.893051 7051.666492 4358.595382 20402.834373 19473.921955 18693.357386 20764.703442 15386.635835 16305.756663 19820.865165 18609.852539 12043.851212 15682.637742 6110.752843 5077.640864 5241.058066 20409.859236 20640.617585 20731.362438 16671.625525 19150.158409 19598.188897 21952.811539 18661.048534 12271.468917 13361.631715 7044.257199 3944.087714 2908.851472 20166.569687 20325.733065 20651.078921 13700.542592 19187.070801 20699.872123 14473.301839 17491.747704 8673.550860 9364.946676 4584.836333 4807.106966 4738.543579 19760.566272 19422.730355 19801.686230 21259.661722 20106.456882 15217.081071 14160.114924 12279.803441 9811.454901 15901.050476 6295.554470 5096.327055 4636.242405 19376.726385 18957.092809 19009.615361 17494.983956 20258.728513 17845.860581 12300.647224 13818.806198 13230.978542 7406.653095 10311.135396 9833.896575 3346.431530 19023.636139 18912.303543 19228.184076 20306.197043 20461.378591 17223.284843 16009.351661 5750.475872 10315.849001 11471.109638 11168.922069 3979.521266 3769.469158 18728.706308 18281.110439 17681.676128 20206.621071 18432.566871 19289.301787 15967.737406 10284.618324 15401.364268 8354.341878 6043.427218 2739.481611 2356.861944 18528.980009 18515.806463 18683.429193 20603.882690 17625.916824 15998.047121 10117.032096 9739.993820 11559.618916 7252.555427 8224.545678 4021.195332 4576.523611 18231.482488 18079.121866 17357.921802 21015.665766 16801.385841 15969.413054 14986.191980 8495.070208 10207.827511 5536.637100 2670.461944 2016.376739 3735.271466 17800.797083 17651.860138 16233.819501 20082.543085 16998.997506 12732.778497 11996.322825 10749.419836 5731.729920 7886.234375 2724.367429 3455.149678 2760.598784 17244.494742 17343.778322 16638.737682 15914.585465 15977.840276 16033.523897 11655.750770 13321.608982 8181.786918 6970.125508 8220.894046 5664.298455 2734.460152 16753.896388 17384.676406 17884.205779 19109.118405 18205.579442 8745.362968 10428.938485 9698.412366 11211.474270 8571.915480 5840.712775 6064.629625 4731.001518 16408.677678 17519.071400 19522.090486 16214.295882 17341.201626 15798.142931 5912.220927 15740.050587 7342.089822 9829.826733 4593.904696 2408.605984 569.322301 16174.171469 16213.052109 16416.532527 17240.070715 16122.872398 16273.953635 5970.531743 12301.541894 4737.610558 8281.948615 8166.886254 4750.252013 3244.280598 16127.866220 15331.781030 14755.883707 16919.908165 14395.142158 9829.320056 13182.752140 13986.383348 8102.402416 7233.965934 4291.304872 1681.559944 2050.026888 16083.345172 14660.367949 13168.336794 18182.041193 15797.275118 14184.773547 16023.515537 13326.891511 6743.614922 7138.477839 2434.716412 4441.178085 3149.137148 15903.589185 14325.813728 12639.058571 18443.744787 15901.141391 8289.945279 8773.014005 14258.315605 14683.336516 8099.062944 7218.289248 6381.552358 1603.797703 15601.727304 14211.519249 12704.151024 15213.252644 13266.686357 7260.250355 12597.019831 13067.539248 6134.459093 3772.563172 4791.713309 6504.130209 4495.608604 15284.706543 14647.096243 14910.695924 16124.420165 15369.676160 15420.787178 11048.838891 13143.643377 9304.986121 4696.236331 2363.581491 5513.113294 3967.887042 15109.644579 15409.150964 16436.087094 16382.071123 13652.609282 13435.604629 11385.271237 10323.912178 8771.429253 8810.367536 8615.873496 4620.945680 4524.829481 15222.884093 16675.361226 18196.846956 16527.820601 17186.871344 11214.025202 13429.779553 10513.602453 6874.594552 8491.612863 9025.621404 3010.678636 3770.117820 15456.017402 16498.706476 17502.540644 15243.112087 14487.746338 13821.566613 13645.105887 10607.643817 5170.048632 5154.655441 5304.871204 4113.560239 3262.210617 15754.151960 16277.831522 16302.780171 15492.740226 15915.238492 13445.933421 10466.741927 11586.570844 7778.641436 5150.307784 6202.114709 4304.585701 4109.963359 16031.689851 15962.880528 14826.935799 16107.454858 15184.971609 12654.850592 15410.583857 7527.027838 6198.468082 5411.533602 3560.405646 4765.307353 773.170999 16157.789740 16624.171464 16440.410451 14815.480229 18228.139426 13408.970104 5905.828256 6205.353464 4398.862046 7117.152478 4183.445380 2514.418892 3798.682772 16113.616529 17045.678712 17458.622187 16572.147404 12602.469608 16032.379116 10135.665625 4995.222971 11148.124347 5273.098700 2933.115952 4343.487757 5785.349690 16186.205570 17093.073180 17364.052525 14632.238995 13259.800744 14440.137540 12371.949293 12007.865767 8368.968668 6122.881432 6242.732488 3866.811351 4734.232715 16450.893590 17083.761024 16952.384045 13199.124109 12643.060925 14247.262819 9648.922372 8524.775999 9616.469258 8151.976751 8637.023498 3933.582015 5716.680381 16625.921602 16972.174855 16718.632545 14520.100766 13463.110109 12873.035363 10644.997852 10142.353425 12247.582597 3966.513915 4880.164931 7703.305825 3419.363100 16715.121011 17171.655288 17166.911588 14509.973465 11628.571645 12094.627879 9140.216091 7523.807232 6093.620113 7842.708846 2205.008998 4899.186565 4858.442541 16777.770337 17283.213205 17445.384730 14059.891809 13432.727265 10270.290530 7023.180474 10216.627160 9844.426264 4211.305792 3958.703889 3730.469559 2996.350453 16694.377019 16126.143336 15339.578024 13076.046247 11616.050069 12371.871184 8434.260874 10035.521279 10353.140649 7937.400103 3846.149732 5741.344457 2195.501116 16606.160090 15193.645804 13310.953244 12955.195515 12376.678831 8817.830740 7367.209332 11509.166025 9631.128567 8467.838096 6687.737100 6516.671915 5056.670868 16574.037847 15225.702365 13394.858699 15441.605347 11563.090273 10016.952312 10904.814507 10962.019495 6493.872950 4040.972780 4696.888304 5067.064893 1103.333838 16430.423047 15368.766554 13798.306616 13393.336081 14182.936761 12188.274592 7829.675225 7853.379456 7462.520961 10073.665188 3947.539863 3341.559583 5166.923835 16190.759348 16021.898892 15466.449161 14355.572074 13421.556514 11654.509625 13107.298715 11330.588692 11517.066358 7730.754682 2051.325534 5729.555083 7758.614058 15978.491869 16099.696319 16305.787503 16361.954939 12361.321314 11396.427556 12516.457075 13512.963425 5035.943277 4231.112587 7395.145774 6345.484215 6905.687988 15841.983540 15538.910146 15440.587467 16046.377782 13797.673550 9703.236007 11119.668038 8503.112222 11992.998665 9052.712399 5867.528955 4542.480615 4390.747484 15708.208032 15065.578363 14430.491641 16643.677326 15166.067107 13184.740536 12732.794879 11734.953028 11081.580644 8077.300036 6295.397767 7626.042759 4306.856730 15522.946060 14836.205377 13689.430252 14989.551017 12624.776305 14375.814144 5635.165409 12441.218182 7594.421525 4833.595187 9513.735474 3468.720097 5285.332187 15329.778194 15092.244684 14554.654955 15720.319304 16171.991660 16045.871843 9576.497166 12723.475485 11702.166959 7894.305443 9569.685558 7197.087928 3116.427924 15049.071196 14904.038729 14655.368152 15729.056441 14694.407308 14329.360231 14233.058350 10081.926157 6696.432588 8122.472977 5787.451392 10231.191257 5019.969265 14708.451826 14118.996132 13319.936602 15511.933625 13690.674924 13701.300891 12327.006872 12671.653278 6085.928833 7473.865719 7887.802511 5386.985449 4947.384558 14428.215602 14371.694298 14391.866558 15250.845474 15219.292427 13088.691886 12084.650111 11123.758633 8129.535056 7078.201362 5555.323188 6216.963607 3656.044816 14128.882602 14176.449157 14520.587830 14405.660046 14194.616804 13739.612015 6254.322339 9281.603408 4819.682536 5452.431626 4696.047701 9239.540340 626.404370 13945.372679 13547.217813 13409.939973 16334.014270 16543.041392 13158.267814 12145.842559 8222.791362 10672.620897 8351.307768 4777.903916 6165.632134 3368.199226 13997.660378 13236.019382 12579.278215 14670.262027 13612.985718 10700.652581 11571.684693 11351.230049 10844.418434 7400.692718 3889.745626 4167.180084 1280.024655 14108.166607 13965.444331 13315.731221 17949.409301 12625.756138 14561.637407 11782.717809 8932.658007 9180.556951 9774.333293 5050.673758 4156.350474 1967.827767 13913.390527 13688.457869 13093.118004 13000.271612 13206.557501 12033.105952 12235.412048 9369.899968 10147.686018 7102.490813 6580.423703 1564.751302 5003.100068 13505.462794 13056.087798 12625.422867 12143.510671 13493.448644 9721.499495 10622.427331 8949.717414 4766.528961 11940.535695 7089.952455 5963.945514 5186.251790 13212.947735 13295.054741 13197.298881 14947.768035 12319.770890 12833.400514 12862.871678 12413.377100 9726.929561 10316.629780 9057.160803 6693.334040 6067.173007 13047.930342 13224.125507 12976.872203 11574.567643 13722.183135 14473.356774 10456.705600 11708.530749 8431.416004 10082.737906 8284.132676 3968.967408 2966.830717 12884.365736 12867.622228 12460.142317 13810.650545 10937.129442 12458.277522 9721.869183 9531.150009 7300.117945 6763.429420 7813.393487 5571.837258 4669.133436 12626.741886 12606.542943 12491.043487 14652.384195 12586.777035 11580.817008 12893.178534 10223.535552 8018.208667 6577.664411 7646.614262 4465.032508 1044.126379 12358.359971 12215.885334 11542.093827 14300.962059 10846.183018 11762.096120 9150.753029 8973.490823 6827.243429 9689.017006 4598.704895 6783.402152 5076.846039 12139.334772 12536.473274 12547.429773 11869.031510 12875.885659 12454.100325 8007.303909 6762.756188 7182.388006 7594.973689 5854.245871 8405.052307 3338.724281 11702.714192 12325.216674 12702.475683 12142.677718 12021.078175 9087.818647 9944.702355 11337.560715 11103.721654 8338.917136 2887.455848 3607.267251 3610.131059 11054.736008 11877.759877 13378.247838 13246.802889 12993.720894 11638.559343 9178.952922 10279.010772 8961.933213 11374.952025 7209.896620 9410.025079 5626.997096 10581.455424 11831.913636 13831.415665 11129.978620 9950.466869 9010.810759 9039.646262 7720.931093 5165.074572 4898.203686 7439.213099 6377.417239 1865.396831 10530.321545 10908.292115 11515.520308 11993.480998 10898.931759 8513.179160 4485.294625 9558.255237 4748.951954 2633.951071 7571.119466 7536.733520 4168.192108 10769.580900 9507.510246 8329.908584 14138.333448 7044.748825 9289.725924 10603.971938 6536.344709 7836.255305 4371.735490 6259.778206 5353.976246 6284.852066 10986.101861 9109.837064 7073.220851 10848.399959 11100.574485 11301.692146 7817.710072 9512.873404 7885.924732 7516.422699 4060.590682 2390.442056 2395.226210 10963.007590 10551.849792 10076.882786 10519.009130 8111.472395 9053.497629 11256.755445 5589.107337 8423.645743 5004.391457 5525.245890 2249.561415 3335.849490 10815.307544 11841.084746 12796.910602 10661.085367 8657.092531 8763.990838 7989.253229 10237.470222 8109.077022 7917.901524 7007.087896 3993.745287 6099.971921 10828.564142 11551.292856 12208.516861 9038.474498 9896.434510 8438.495095 7670.653219 6884.005459 7746.483877 7627.641258 5395.419948 2599.382640 2957.412242 10979.103275 11129.670714 10224.498421 12493.081248 7297.651975 9900.957810 8574.526275 9452.957205 8375.987619 1951.413864 7541.483123 6217.056301 4009.380145 10935.070957 11105.118406 9135.008516 10877.742416 10551.242864 7046.519087 9327.818145 7100.794935 10525.428501 6846.610051 5592.354480 7262.039017 5099.356559 10418.774784 10885.233604 9664.067803 9910.115479 8068.079444 8790.245683 8567.632771 11634.074247 7111.609784 9405.932483 11456.904284 6782.175277 3448.335252 9618.589550 9823.822155 10059.275128 11182.511533 8954.512944 10431.148943 8941.310128 6091.030306 9622.573845 9729.966943 9018.584780 6598.982961 4110.162703 9088.309493 9605.446707 10349.832544 10777.680877 9318.563423 9366.622085 11541.911355 10643.836497 11225.017770 10370.158931 9007.082229 7679.488366 9817.466531 9059.071312 9535.447523 9918.917594 9352.057478 9563.860319 10866.487357 11110.296972 9053.607897 9514.671301 8516.835572 12221.307984 12076.879794 11003.949961 9191.416244 9209.172898 9222.605868 11449.298849 12772.371060 11805.703111 12022.221431 12328.483387 14059.887352 12277.281825 10996.090066 11904.979044 7914.958006
</DataArray>
<DataArray type="Float64" Name="Velocity" NumberOfComponents="3" format="ascii">