<VTKFile type="PolyData">
<PolyData>
<Piece NumberOfPoints="2177" NumberOfVerts="2177" NumberOfLines="0" NumberOfStrips="0" NumberOfPolys="0">
<PointData>
<DataArray type="Float64" Name="Pressure" format="ascii">
 21971.301476 22085.630408 22157.438382 22015.998275 21639.770710 21112.701493 20500.744117 19824.908743 19010.028163 17955.523347 16729.111934 15455.211191 14175.890518 12887.301146 11545.474219 10147.654187 8773.917231 7484.119851 6311.582149 5176.755851 3992.728653 2770.506081 1669.740172 840.275807 302.356513 -38.148774 -301.845878 -575.320929 -893.755328 -1243.546971 -1582.266558 -1870.553284 -2085.472622 -2219.842708 -2277.950556 -2270.877387 -2212.568067 -2117.036552 -1996.711857 -1861.710394 -1719.740936 -1576.365078 -1435.402580 -1299.348961 -1169.738493 -1047.430767 -932.824871 -826.019222 -726.947969 -635.555737 -552.161056 -478.224512 -417.239929 -373.272648 -346.956776 -335.679197 22281.620073 22480.186606 22652.850776 22480.665236 22016.648683 21353.831668 20622.764851 19996.893177 19319.774996 18204.086990 16820.992080 15454.603248 14185.124127 13041.511062 11742.891902 10250.816142 8863.056898 7605.968394 6504.819951 5290.519934 3850.239538 2197.057895 829.741308 42.320029 -274.354170 -374.509244 -464.969021 -632.500183 -902.171808 -1242.873007 -1580.648026 -1868.963609 -2083.975218 -2218.514814 -2276.853806 -2270.035143 -2211.968749 -2116.646692 -1996.489115 -1861.612889 -1719.732385 -1576.416635 -1435.492608 -1299.461758 -1169.862473 -1047.555807 -932.936834 -826.084762 -726.867760 -635.023362 -550.268122 -473.168555 -407.498775 -363.042527 -338.830349 -329.307870 22634.226309 23041.352954 23559.818740 22720.781280 22389.421265 21568.233496 20547.292071 20066.729416 20036.202106 18724.794007 17280.553630 15747.497777 14058.599165 13829.649470 12295.394421 10239.810935 9181.228010 7686.694276 7073.168277 5182.044595 3722.627178 629.915095 -750.663547 -1340.699558 -1164.700428 -836.628630 -665.266726 -685.018652 -885.261827 -1237.536038 -1580.286238 -1869.796251 -2085.169588 -2219.717433 -2277.898537 -2270.856039 -2212.559477 -2117.033174 -1996.710560 -1861.709901 -1719.740730 -1576.364915 -1435.402227 -1299.347863 -1169.734916 -1047.419050 -932.786477 -825.893428 -726.535975 -634.204780 -547.772769 -463.083870 -384.534704 -343.226629 -324.896509 -318.669678 -338.125297 -319.155876 -311.283346 -294.507236 -287.718213 -283.826464 -251.731206 -250.098466 -248.573670 -216.851950 -216.413024 -215.879975 -186.700582 -186.608435 -186.403256 -160.372675 -160.379579 -160.281649 -137.351163 -137.384489 -137.323302 -117.258967 -117.296998 -117.250440 -99.776194 -99.812574 -99.773584 -84.615938 -84.648980 -84.615140 -71.516655 -71.546086 -71.516410 -60.239418 -60.265392 -60.239343 -50.566557 -50.589344 -50.566534 -42.300606 -42.320503 -42.300599 -35.263286 -35.280584 -35.263284 -29.294431 -29.309405 -29.294431 -24.250863 -24.263770 -24.250863 -20.005228 -20.016307 -20.005228 -16.444807 -16.454277 -16.444807 -13.470333 -13.478393 -13.470333 -10.994811 -11.001643 -10.994811 -8.942379 -8.948145 -8.942379 -7.247203 -7.252050 -7.247203 -5.852432 -5.856489 -5.852432 -4.709204 -4.712585 -4.709204 -3.775726 -3.778533 -3.775726 -3.016424 -3.018744 -3.016424 -2.401154 -2.403064 -2.401154 -1.904498 -1.906063 -1.904498 -1.505119 -1.506397 -1.505119 -1.185190 -1.186229 -1.185190 -0.929886 -0.930727 -0.929886 -0.726930 -0.727608 -0.726930 -0.566205 -0.566750 -0.566205 -0.439411 -0.439847 -0.439411 -0.339767 -0.340114 -0.339767 -0.261758 -0.262034 -0.261758 -0.200922 -0.201139 -0.200922 -0.153659 -0.153830 -0.153659 -0.117081 -0.117215 -0.117081 -0.088880 -0.088985 -0.088880 -0.067221 -0.067302 -0.067221 -0.050648 -0.050711 -0.050648 -0.038012 -0.038061 -0.038012 -0.028412 -0.028449 -0.028412 -0.021140 -0.021168 -0.021140 -0.015643 -0.015664 -0.015643 -0.011489 -0.011505 -0.011489 -0.008341 -0.008353 -0.008341 -0.005932 -0.005941 -0.005932 -0.004051 -0.004056 -0.004051 -0.002520 -0.002524 -0.002520 -0.001190 -0.001191 -0.001190 0.000079 0.000080 0.000079 0.001427 0.001431 0.001427 0.003005 0.003012 0.003005 0.004988 0.004998 0.004988 0.007589 0.007603 0.007589 0.011071 0.011090 0.011071 0.015768 0.015794 0.015768 0.022099 0.022133 0.022099 0.030585 0.030630 0.030585 0.041874 0.041932 0.041874 0.056750 0.056823 0.056750 0.076149 0.076240 0.076149 0.101160 0.101270 0.101160 0.133013 0.133146 0.133013 0.173049 0.173205 0.173049 0.222650 0.222828 0.222650 0.283132 0.283328 0.283132 0.355570 0.355778 0.355570 0.440558 0.440764 0.440558 0.537851 0.538034 0.537851 0.645894 0.646024 0.645894 0.761194 0.761226 0.761194 0.877506 0.877381 0.877506 0.984815 0.984451 0.984815 1.068063 1.067356 1.068063 1.105621 1.104435 1.105621 1.067456 1.065621 1.067456 0.913008 0.910315 0.913008 0.588754 0.584950 0.588754 0.025485 0.020266 0.025485 -0.864685 -0.871672 -0.864684 -2.191502 -2.200667 -2.191501 -4.089899 -4.101706 -4.089898 -6.723338 -6.738304 -6.723334 -10.287045 -10.305733 -10.287031 -15.010978 -15.033985 -15.010932 -21.162343 -21.190276 -21.162194 -29.047478 -29.080877 -29.046992 -39.012907 -39.052049 -39.011322 -51.445563 -51.489838 -51.440392 -66.772551 -66.818482 -66.755686 -85.462364 -85.497170 -85.407365 -108.034341 -108.014742 -107.855015 -135.100008 -134.880480 -134.515330 -167.512389 -166.594504 -165.607893 -207.076170 -203.528313 -200.841495 -256.262888 -242.932739 -236.556636 -284.967109 -262.615895 -252.478888 9469.388377 9541.244009 9173.577301 8497.247497 8983.396368 8476.322568 6918.362204 6839.823515 5040.167211 3719.892774 3260.502990 2189.987867 1545.767329 1254.622157 887.316249 519.576648 158.211535 -191.302788 -523.161251 -832.867161 -1117.935330 -1377.416435 -1611.168556 -1819.327094 -2002.016193 -2159.234787 -2290.860432 -2396.729752 -2476.757616 -2531.059920 -2560.053129 -2564.515740 -2545.608309 -2504.856738 -2444.107692 -2365.465934 -2271.222348 -2163.779629 -2045.580593 -1919.042439 -1786.498966 -1650.151835 -1512.031338 -1373.966649 -1237.565135 -1104.199613 -975.000782 -850.847044 -732.327661 -619.595860 -511.913959 -404.046729 -312.252336 -273.907099 -257.275427 -250.786916 9315.898046 9371.436097 9005.846133 7783.296852 7324.415858 7273.701250 7018.231828 6560.101823 5352.038360 4215.134064 3275.322388 2440.800895 1782.705365 1303.935486 902.222757 524.363575 159.956085 -190.510239 -522.652918 -832.436825 -1117.525626 -1377.013263 -1610.767923 -1818.926304 -2001.612515 -2158.826145 -2290.446350 -2396.311900 -2476.339811 -2530.647677 -2559.652968 -2564.134453 -2545.252320 -2504.531625 -2443.817889 -2365.214580 -2271.011267 -2163.609389 -2045.450627 -1918.951198 -1786.444092 -1650.130353 -1512.039879 -1374.001801 -1237.624191 -1104.282665 -975.117269 -851.036975 -732.731608 -620.697189 -515.319083 -417.547788 -335.622818 -288.728263 -265.897401 -257.013884 9209.653149 9213.849935 8920.592631 8121.599936 7538.981504 7261.752735 6970.063149 6378.305290 5418.525125 4345.973968 3359.553752 2519.705466 1854.350896 1340.451037 914.925428 528.723341 161.339263 -190.248113 -522.821540 -832.763596 -1117.905117 -1377.407783 -1611.166044 -1819.326334 -2002.015952 -2159.234707 -2290.860405 -2396.729743 -2476.757613 -2531.059920 -2560.053128 -2564.515740 -2545.608309 -2504.856738 -2444.107692 -2365.465934 -2271.222349 -2163.779630 -2045.580597 -1919.042453 -1786.499010 -1650.151982 -1512.031818 -1373.968220 -1237.570277 -1104.216437 -975.055827 -851.027110 -732.916432 -621.524224 -518.149715 -425.923111 -351.166320 -300.929720 -273.150372 -261.810904 22720.759638 23417.579046 24157.634609 22090.128713 21816.854030 21397.028791 20203.961219 19888.009861 20400.665732 19079.307639 17773.548355 16391.917648 14253.032022 14582.412060 12367.780572 10039.229974 9459.811044 7403.891047 6831.664139 4355.842567 3866.896527 -1369.935633 -3310.293267 -3013.754325 -1857.300310 -992.905493 -722.914152 -691.623170 22746.774551 22998.332016 23478.629903 22916.347666 26303.040158 24738.941231 24246.678034 24597.753428 25265.839224 24695.799279 25571.441282 22188.041323 23685.023876 23532.694164 23227.523110 17758.144575 22093.195811 24021.333203 23651.962800 22103.537499 24766.494399 22965.173290 24472.251767 23424.126352 22275.542103 19129.633032 5345.198674 10624.089771 22849.519908 22074.566686 21127.446359 23616.560326 21214.557864 21287.847010 20882.133103 19159.103560 24071.553035 13908.170340 20877.635311 26370.281956 22594.126645 21110.418346 24145.955667 21700.219109 23851.345814 11580.648148 27743.201126 20005.511810 22806.424702 21393.854954 22902.988585 19389.450213 15677.921363 10499.399096 17668.702235 14109.370620 22990.285973 23089.059838 22366.296020 18687.105205 17682.181271 20516.800183 18381.713496 15736.000786 22868.787891 18978.144725 23663.116680 23187.670961 22100.939278 16601.132372 22822.198360 9273.218810 17423.659350 3220.561976 21247.175575 24264.824867 17955.717196 23020.223784 24158.160915 17560.355473 18016.162020 18242.970802 15339.391134 7083.533045 22866.535789 22550.355844 23901.648655 20973.021803 17387.961023 21924.249903 22450.068427 19300.982922 23285.399681 21733.993182 22987.155458 9170.909885 16542.827913 14525.622243 17502.102775 18319.908941 18830.103570 23208.730444 19443.974856 21075.375998 14389.086864 22754.936254 14931.369068 7044.503633 6093.665860 5799.317840 16405.991877 4837.575920 22517.316546 22446.658433 22703.904370 22348.120022 24575.377217 16655.248005 21388.661910 23508.893183 22507.129518 14463.166730 9487.381130 17991.557666 12890.769160 13888.144155 17479.224305 14994.390547 11520.224436 4186.491231 7505.445575 4728.558989 15967.777418 7251.718222 24420.519375 10555.545247 14226.401686 11599.808373 7586.442447 6566.087625 22480.503194 23362.871068 25126.695215 23215.465853 18179.295668 12937.974918 21602.294832 13976.991365 19435.512803 17813.266184 22071.296583 23106.149339 16035.780816 10914.323110 15747.712188 12295.420064 15600.705789 7808.459179 17850.790974 18117.554376 18925.466303 9507.991405 5578.015507 9182.937494 5977.342146 5431.223172 4488.364105 2082.783524 22817.677016 22617.358331 22845.621567 18432.395249 20978.327254 22930.465761 23071.088811 10299.958055 22453.113618 10661.738899 10769.627589 12349.329882 19090.394614 19035.203712 21204.200054 15303.883538 9348.676006 16980.987346 15091.063170 12453.883749 9536.985609 17789.171715 6197.204397 16086.122414 18923.020163 6705.597132 6447.951050 862.051460 23085.447564 21952.025819 20895.249416 23029.743573 21171.731394 23648.787493 18818.798866 23993.661728 22289.675048 22753.314987 23252.283134 18778.368665 21454.702526 12680.105219 7694.499866 24181.656780 15406.138297 17246.872398 2595.058212 7590.307731 11252.054805 11651.468723 8891.500040 8144.419112 16561.007444 1127.028122 11367.785890 2856.001360 23193.611516 22014.866826 22171.462235 22780.373272 25141.615396 23172.744295 23423.490347 21014.118464 16190.788671 14126.274132 13782.372986 9108.169593 17505.489905 18516.136847 9282.808544 12015.892460 7977.063457 15581.957595 7330.431620 20379.042367 9266.088195 9028.447954 9372.486891 13068.447195 6614.980839 5060.196709 3984.167059 10402.697386 23296.435724 21381.760304 20175.446287 24923.287227 27082.461531 26391.207583 17290.442054 24163.065841 6974.561142 23178.559819 11359.951913 18537.646969 8510.387588 7529.749242 16996.280474 9846.677272 9551.555035 15035.772042 13475.987063 10504.096049 12340.445736 7859.580673 11536.166004 11263.518584 7750.552578 12328.895365 12710.825546 7546.234229 23404.123210 22268.893826 22498.631331 23691.038327 22139.109544 23386.315399 20317.212109 23055.856971 14917.727365 16028.580106 10432.251562 14412.484653 16625.763959 18814.036892 8479.102334 12303.922001 16703.189436 5681.891980 7121.240591 6818.481023 13394.786755 15501.154705 7989.063203 13525.329916 9992.639786 9947.932302 4149.637370 2420.340159 23308.037132 23636.624448 24652.808809 26245.896006 22674.641714 19000.241043 18939.292056 19732.586113 14038.458745 17932.113125 15272.242382 16962.027495 17310.593953 -228.592926 12468.085444 2602.676970 13735.243696 7837.122994 7433.084198 17607.579604 10326.864456 6954.004923 13867.422916 10235.576901 10699.555559 2928.781604 6956.906556 10791.293496 23080.011969 23829.179540 26081.262967 23983.605220 22278.394320 22997.906644 21534.330526 22318.952451 16606.598045 22421.357728 13242.877023 7339.190841 4724.969460 6005.944065 8372.969616 7778.944476 10669.889885 5925.786779 6305.632851 5247.425850 6973.787367 3873.183941 6071.774185 14697.345384 5258.140872 8539.777035 12622.918016 2204.389377 22951.675746 22952.510362 24963.303325 23614.211974 23535.747632 23148.530792 22579.699796 22144.057451 22558.681440 15365.385270 11052.258581 11214.078012 7641.485327 8617.270587 10600.948646 2675.372306 3362.964807 7586.154485 7210.275077 7889.343424 4478.335537 3381.742800 2891.625868 6456.800339 9753.145513 3856.312752 2399.692170 5048.896375 23018.053910 22335.912414 22575.227904 22781.337629 24907.210937 19655.047862 22469.257348 18517.080116 14695.484750 14085.884070 11966.267911 5817.314147 4428.556063 23028.437678 22387.082241 21537.394810 22543.541351 20652.566229 22881.097138 22246.647094 18894.831316 19164.235698 9222.295192 5796.090816 3779.108824 3775.139601 23078.209673 22226.460135 20906.897195 23651.697982 18772.807828 14630.257091 7207.434032 18911.131688 10701.590970 5555.721937 8351.739691 8612.413875 8741.285402 23170.354088 23440.176348 23141.984308 22810.388031 20419.755187 20772.023799 16072.888141 15840.927790 6526.549157 9093.823782 5822.089335 2270.341681 7045.077661 22945.912114 24156.438748 25319.409060 22850.867271 19526.034111 17100.961800 14369.267237 11981.411538 7613.836070 10382.695671 12158.234528 3617.284234 -1417.444729 22535.920060 23303.403000 24123.775012 21747.248486 19979.742449 21578.839939 13134.763983 16690.322143 7132.720766 4395.162474 12506.726081 4112.510169 7652.283030 22177.458717 22513.687612 23176.324041 21291.153796 17950.133360 19484.192525 12248.529666 11482.247769 8076.146636 13428.993211 12420.076517 7575.529430 4654.187531 21857.291352 21533.700006 21025.706553 22417.902047 18686.155177 6518.452097 6298.672547 6861.025441 6051.873505 12219.678997 7793.359056 6431.849254 3022.339468 21673.885732 21771.954109 22327.282452 19319.194254 16821.452587 9453.294298 12353.371775 13767.220968 10681.511639 9956.075909 8417.474731 4120.200006 3145.535126 21441.370618 21973.727003 22930.693259 22341.531423 17712.275867 18355.910191 17984.553724 8650.983951 10706.923513 9639.549674 8926.725938 7076.686019 14028.963942 21123.239977 21096.406780 21419.457426 18732.109517 15451.091156 16359.762798 9793.105939 10961.632233 10424.906489 13698.424453 8653.114311 6645.848442 9138.010955 20944.650589 20813.640958 21436.361277 19559.634837 18652.312985 16710.870316 15052.527924 14832.161103 9000.648007 10070.299459 10697.776541 2224.365067 4385.132361 20829.439291 20927.932849 21252.222408 21556.179047 17048.826032 20398.042961 13779.134758 16837.272925 6784.650069 11940.065901 13309.910453 6411.742855 3245.976025 20619.240168 20595.957779 20617.136294 19030.094961 15350.892184 16926.848414 17495.723757 16795.144088 4740.300238 15850.370809 4391.706853 6628.437218 5694.552878 20276.907352 20620.981925 20919.870872 20816.498101 17911.356892 16348.387249 20368.081669 18572.208683 12362.197099 16723.239785 7393.596117 4502.239612 5496.281351 19762.740430 20158.804750 20930.273434 17896.892090 18056.535224 19282.332957 20519.402274 16914.934676 11244.608661 14380.519099 6879.783285 3718.313421 4451.934469 19305.556562 20149.115379 21376.296572 15315.772341 18319.700099 20842.156742 15046.364216 17420.195713 8126.292375 9524.390342 5047.528290 4358.115816 3993.482502 19043.764833 19682.102838 20717.267196 20992.012816 19847.355009 16181.659234 13887.487468 13086.804239 9547.757545 15992.627188 5861.794026 2957.765602 4808.497876 18853.555229 18689.150311 18502.472445 18467.763796 20340.106514 18167.289519 12658.451843 13844.343447 12481.967409 5228.560002 9431.907694 8866.272820 3467.785110 18572.323054 18780.514545 19082.927195 18458.921704 21361.388225 17380.296507 15705.994907 6459.224002 10566.724169 10457.078445 11577.389357 3691.048448 4350.256538 18225.263034 18549.423812 19211.705776 20184.023189 20007.503188 18683.020398 15880.282023 10452.612659 16232.578774 8845.415400 6047.188107 2668.991887 3402.720726 18002.564542 17494.954343 16483.098331 20318.710910 18854.842346 17289.426570 9918.731220 10096.433559 10859.318983 6611.550613 8543.880361 4805.078435 5168.112788 17909.786006 17953.227058 17206.139304 20594.403214 19891.770692 17159.028565 14625.193299 7870.283857 10046.183713 6127.879117 3314.118303 3603.138518 4799.136810 17702.997230 18071.672597 17463.662119 20032.398376 18623.683227 12427.204424 12843.530627 10420.591655 4585.284505 7372.839723 2555.278447 4408.411919 3202.476407 17318.973206 16914.524148 15866.981474 15793.397447 18883.168369 15791.985651 11859.114724 13585.609249 7561.708293 6551.263685 6327.806803 4709.738335 2989.097525 16835.801131 16161.864272 14930.941092 18858.539758 19034.122971 9157.787240 11550.799835 9645.971914 11506.140573 8018.066752 6106.413559 5801.418691 6630.697412 16546.195350 15898.192509 15225.067527 18791.288722 17671.620547 16269.071792 4662.179817 15745.418872 6991.833186 10009.296257 4692.202066 3505.787233 2261.705439 16434.648990 15043.503599 13859.761767 19007.728462 17011.629875 16434.340304 4978.300290 13889.834391 4724.830744 7073.014936 8084.068376 4872.262177 3616.869109 16329.940454 15445.434444 14620.384531 17343.264380 14241.831154 10243.297585 13974.873867 13919.522875 7418.702675 6701.748132 5220.760529 2771.105458 2262.745018 16271.301435 16834.288386 16645.714214 18293.696119 17323.044431 15835.867703 15939.838518 13485.487252 6245.357308 6091.383718 3237.305238 5024.243199 2511.446907 16169.661485 17306.693575 17952.271107 16740.214975 18852.213515 7816.486471 9030.952370 17049.497878 14142.295216 7703.527061 7133.650971 5482.239144 2198.771014 16003.266404 16575.726354 17364.267293 17239.253950 13722.143092 7080.986566 12217.008458 13618.374350 5426.257454 5878.197418 5000.006449 6157.605599 5603.968807 15985.029778 16333.127176 17096.050124 17340.835985 14582.162353 15077.975716 11384.620667 13093.017718 8793.363888 4973.729054 4095.685448 6241.540151 4939.646043 16064.109682 15771.391365 15095.391542 17680.242669 13945.759318 13387.933089 11564.168651 10152.654710 9054.040227 9864.802266 9115.683902 5352.235987 4717.441787 16165.503808 15415.802616 14177.343329 15699.855610 15704.586746 11143.901686 13274.795062 12273.157134 8981.414833 9694.382017 9502.008091 3609.306418 4127.731354 16275.716902 15355.591961 14083.895055 16088.775704 15132.786380 14018.691394 15391.443641 10728.367982 6029.707618 6048.873638 4990.657349 5853.330455 3613.888387 16346.006352 15402.122270 14302.756914 15628.189038 15398.740344 13538.104338 13135.491700 13456.975866 8358.979138 5890.063930 6463.314187 5320.963844 4496.737958 16489.364556 16078.578205 16466.999732 15602.028095 14258.342221 13974.794214 14953.121655 8655.259911 6735.452588 7123.071012 3535.083686 5729.957132 5070.767463 16661.383560 16638.976135 16130.144089 16333.015160 13963.735893 13469.117744 7195.575110 7225.284201 6295.507645 8486.804966 5179.403721 2274.551042 4522.882523 16732.331482 16477.120807 16101.431111 17075.993268 13966.763985 15529.861383 11431.645163 4055.536994 10518.238723 6121.382225 2916.523091 2626.497197 4972.326432 16726.978739 16036.820580 14965.498529 16250.186619 15237.158816 13903.322721 12885.721758 11413.273824 9379.117188 6905.967115 6140.194573 5550.108904 5622.642513 16725.279222 16546.074800 15963.690436 14176.530235 16395.353753 13458.793991 10060.422712 10806.112967 12915.706893 8332.800415 8428.075127 6909.494636 7108.142581 16617.985990 16903.538984 16409.274594 15398.762928 14827.943109 15580.150718 13841.938005 11909.255913 11922.386665 4937.613109 6339.768341 10114.659950 4402.751682 16499.321515 17085.990017 17074.302074 15414.715565 16638.978495 13865.487388 10581.867729 8781.173076 6844.734150 9192.606095 3393.372993 4304.192280 7449.061201 16389.190631 17556.509393 18195.044361 16438.344422 15435.603139 12790.774318 8271.493268 10798.889361 9843.945375 5720.330148 5506.629762 2143.999192 3383.264325 16101.610865 16771.346085 16661.987843 13442.695758 16766.167725 16434.854616 9949.118175 12555.507493 10113.828383 7686.080702 5254.597270 4807.293418 797.351990 15786.984218 16373.294430 16603.191682 14755.512151 13589.587346 11417.967413 6764.770958 12523.347725 9415.245139 8604.967634 6845.670836 6808.735674 2173.636743 15588.726416 17573.347797 19764.969544 15332.526753 12339.041086 10636.809968 11726.643297 11853.861199 6551.978377 6008.406698 5416.661167 5866.971105 6077.706514 15247.744030 17241.066056 19324.893546 15141.696589 13638.044339 12663.225825 9308.131288 7999.015515 8615.426563 10223.031427 3839.436564 3394.639218 5310.575682 14878.379673 14969.978169 15635.760463 16937.509608 13723.265930 14043.400931 14026.372531 10094.529062 11081.441725 9299.875510 3173.591634 7060.623549 9236.672774 14906.418208 14922.254650 15765.294235 15780.747846 12782.933743 12975.330511 11979.817107 12307.418282 5348.885595 4501.978449 6498.167978 6960.341856 9439.105997 15155.947814 15893.759659 17395.238966 16671.373624 16610.893841 14201.508936 10693.275439 8836.488468 12121.169445 9903.767216 7309.139114 5957.389511 3814.308380 15304.175257 16295.847013 17657.360338 16447.453507 15912.805339 13895.302446 11977.673250 10453.359091 11526.962184 9549.915649 6520.289954 9651.307092 4811.614752 15355.980876 16013.642963 17032.566914 14393.341656 17404.456266 17382.986955 6470.630574 13027.277205 8673.971621 5622.941890 9799.402606 3229.137440 7073.983039 15344.013167 15952.693769 16670.555577 15285.747798 14480.459538 16391.517267 9947.508242 12134.016666 12101.437330 8648.796029 10805.910007 7753.741249 5349.460328 15193.048003 15889.199844 16761.231140 14238.498827 16309.814197 17245.868133 13234.183656 11304.020545 7118.485059 8752.680437 8635.290460 11764.053190 6651.634779 14981.451001 15594.358789 16643.060803 15888.018482 13660.588120 12177.261006 10952.534143 12452.154886 8183.183058 8180.089417 9577.909974 6742.528592 6216.638429 14838.641785 15344.007906 15869.696576 16277.663244 14914.231567 13927.675978 13933.597901 10728.372363 10343.053567 7814.237425 5885.798602 6981.545922 4996.296913 14836.475954 15568.966641 16337.954793 13659.477486 14695.766642 13796.454264 7909.364471 11235.696945 7314.426404 6683.867129 6125.615787 9973.501301 442.037146 14933.730497 15252.984301 15268.143575 15093.041557 12875.523430 13863.669341 13398.339201 8303.836007 12368.088117 10481.766895 5958.864554 8889.974050 5872.525510 14925.900760 14527.123288 13079.921830 14953.594348 15788.329259 10952.676298 12193.791241 13096.822522 12521.179253 9692.623873 7884.995836 3709.112723 1926.956201 14722.585300 15062.628370 14928.278547 14297.210623 13487.775343 13394.242393 12869.798687 9516.431344 10135.640276 11570.435301 7688.468861 2826.293826 1902.355738 14379.774637 14826.164472 15547.672713 14591.682490 15113.508456 13277.741275 14836.853418 12217.516291 11593.923797 7748.896846 7379.572030 3413.075047 7036.356608 13936.763426 13886.635021 14379.331087 13599.786751 15651.074730 12462.750961 11825.193343 11230.373283 7781.590150 13861.784933 7631.674814 7149.409830 5309.856954 13522.254383 13595.821181 13826.384308 16252.781192 13219.670338 13166.692206 15003.571375 17062.473811 12024.509371 12921.361153 9715.467441 8762.030942 5314.590229 13228.308467 13464.119649 14032.083046 15739.641927 14304.444655 14956.028581 11350.803695 14111.936579 9596.585642 12304.889758 10874.906745 4690.841164 3229.067637 12985.690926 13747.629710 14460.009147 17345.752457 12625.660601 16561.261594 11533.810540 11959.866709 7133.384906 9846.031724 9122.389048 7351.555642 5496.875763 12575.891153 13192.103902 13323.659666 16853.403786 15240.979897 13648.597400 16563.213421 11299.870298 10290.338090 6726.136179 9239.516103 5350.740555 1577.826546 11941.231626 12730.894137 13344.347422 16569.241557 14264.709455 14693.085236 8608.025520 9255.971041 6695.680044 10249.027124 5582.576589 7199.756900 6297.448822 11198.801134 12455.849614 14355.798109 16191.995610 14030.196159 14407.870438 7617.734294 7369.265180 7068.444987 6188.919074 6641.371320 8672.316489 4650.361779 10644.623854 11155.243675 12499.110347 14761.093348 13587.601844 9476.694883 11383.339158 10328.760353 11002.247056 10076.126964 5396.930428 6150.462579 4661.877440 10542.530495 11826.553111 13294.367122 16156.967124 14534.270716 12807.581286 10860.103837 11575.587510 8116.677489 10452.420210 6472.324462 11079.088753 5379.343751 10369.724058 12461.092741 13949.726111 14239.287681 11235.082913 10525.519354 11187.331984 7836.209346 5650.934198 3060.325733 9196.942308 7190.320400 1976.539972 10009.942949 11566.728832 13072.232399 12366.789391 14534.777045 7893.759255 4094.118445 9467.430138 4115.577189 2981.899593 7983.013590 8833.554476 4410.602431 10123.383716 10616.592646 11250.521579 16448.406380 8091.462569 7633.318285 13291.408665 7218.018782 7184.607832 5142.994127 7887.452798 6435.445229 7196.094582 10709.103424 10470.300723 9644.043378 13258.415261 11159.353527 9831.623371 7986.223928 12356.622800 7892.889626 8490.486995 2651.387686 4091.223741 2693.093008 11232.367321 11536.852764 10323.995110 8917.713089 8038.918900 9955.096066 9956.178077 4561.770805 9672.969166 5952.907234 7133.098266 3708.808060 3816.597991 11376.779697 12749.592602 12244.198296 12039.554772 9655.785563 7945.871914 6709.585057 8585.312274 9757.462305 8899.441072 6892.410322 3478.594516 7554.399560 11022.487813 10929.289064 9692.632078 9056.083588 8573.849423 9814.192592 8377.617349 5970.594104 8602.375737 8925.804552 5871.606438 3052.521218 4059.932049 10590.491411 9544.918512 8068.173751 14674.080946 9608.054950 8736.044820 8594.054340 8284.682443 8638.103890 1451.241018 8321.702002 7411.983761 3991.949306 10398.594945 10719.666723 11237.841168 10026.319288 10815.753369 6953.492431 11097.403937 5896.070035 10004.185121 9067.744544 9208.104156 8693.735262 6994.935025 10343.845421 10830.119407 11933.226555 9209.900459 8996.738008 8405.356304 8963.834671 10485.595204 9142.678854 10069.699261 12042.074306 6778.089644 5220.106507 10362.960153 10560.287364 10919.054450 10412.768170 9909.805888 11250.861291 10339.565639 9177.110192 9320.382798 10518.548713 10392.759976 10130.046294 3770.811601 10218.695330 10435.051441 9731.637638 10083.310581 9086.578823 7795.565895 11979.135009 11985.915391 11790.373641 9652.920239 11044.112940 8772.421223 9491.637952 9756.804990 9770.184965 8887.278619 8275.280382 8181.728162 12363.768086 10317.672555 8966.993768 9992.861999 10151.963044 14424.682153 11474.180864 10341.201485 9469.388377 9541.244009 9173.577301 14110.548027 15116.028750 13152.737889 13941.793779 14627.866280 15442.298592 13947.782764 8991.567242 10453.983542 8405.981301
</DataArray>
<DataArray type="Float64" Name="Velocity" NumberOfComponents="3" format="ascii">