<VTKFile type="PolyData">
<PolyData>
<Piece NumberOfPoints="2177" NumberOfVerts="2177" NumberOfLines="0" NumberOfStrips="0" NumberOfPolys="0">
<PointData>
<DataArray type="Float64" Name="Pressure" format="ascii">
 10966.864517 10858.578629 10622.992220 10230.156751 9656.399066 8933.783444 8086.205396 7122.161783 6088.166612 5051.849101 4093.284449 3269.549750 2586.576331 2014.580530 1520.434400 1084.611788 698.210570 355.940860 53.426129 -212.991910 -446.210382 -648.545410 -821.991771 -968.443071 -1089.863272 -1188.477209 -1267.074852 -1329.316814 -1378.875268 -1417.152198 -1443.803512 -1459.127990 -1464.248748 -1460.506819 -1449.153040 -1431.251236 -1407.669443 -1379.102682 -1346.106339 -1309.131670 -1268.559367 -1224.728996 -1177.963139 -1128.585821 -1076.935357 -1023.372446 -968.285469 -912.098042 -855.293303 -798.497734 -742.746509 -690.118840 -644.532446 -610.570679 -589.900958 -581.061505 10962.235021 10868.150110 10683.073808 10348.511103 9729.885841 8969.524227 8146.431118 7192.910258 6140.760043 5022.050841 3982.333232 3143.228000 2493.470488 1964.970767 1500.279560 1078.275370 697.153968 356.668194 54.695444 -211.590571 -444.805464 -647.170438 -820.636340 -967.044500 -1088.247023 -1186.222164 -1263.393847 -1323.671805 -1374.055178 -1414.911163 -1442.903183 -1458.737376 -1464.036667 -1460.363264 -1449.041334 -1431.157969 -1407.588718 -1379.031310 -1346.042364 -1309.073879 -1268.507083 -1224.681933 -1177.921265 -1128.549135 -1076.903429 -1023.343114 -968.250808 -912.031520 -855.109027 -797.926875 -740.991340 -685.554508 -635.619166 -600.635189 -581.415770 -574.038057 10968.632743 10879.572491 10763.273206 10533.432680 9488.359206 8688.728775 8204.613886 7189.157397 6296.349831 4979.346725 3786.446967 2964.026101 2364.023335 1898.716624 1474.673107 1070.205739 695.546403 357.221676 55.913275 -210.200332 -443.397644 -645.785723 -819.262425 -965.605773 -1086.523458 -1183.615061 -1258.232977 -1312.545375 -1363.401063 -1412.095055 -1442.299706 -1458.674721 -1464.112477 -1460.465859 -1449.140737 -1431.247542 -1407.668335 -1379.102349 -1346.106237 -1309.131631 -1268.559329 -1224.728898 -1177.962829 -1128.584813 -1076.932080 -1023.361787 -968.250801 -911.985278 -854.926580 -797.303573 -738.890758 -676.955219 -615.252974 -581.555089 -566.731848 -562.213227 -575.085129 -559.305631 -553.248778 -530.718397 -524.940541 -521.933406 -482.791704 -481.407479 -480.179180 -440.064261 -439.680771 -439.254868 -400.227550 -400.139750 -399.978348 -362.922287 -362.922810 -362.845493 -328.051287 -328.078656 -328.027626 -295.582986 -295.618190 -295.575696 -265.485864 -265.522816 -265.483618 -237.712030 -237.748639 -237.711339 -212.194867 -212.230313 -212.194654 -188.850921 -188.884817 -188.850856 -167.582983 -167.615110 -167.582962 -148.283352 -148.313582 -148.283346 -130.836957 -130.865215 -130.836955 -115.124178 -115.150434 -115.124177 -101.023341 -101.047600 -101.023341 -88.412859 -88.435155 -88.412859 -77.173017 -77.193409 -77.173017 -67.187434 -67.205997 -67.187434 -58.344206 -58.361029 -58.344206 -50.536771 -50.551953 -50.536771 -43.664528 -43.678174 -43.664528 -37.633232 -37.645451 -37.633232 -32.355216 -32.366117 -32.355216 -27.749448 -27.759138 -27.749448 -23.741471 -23.750055 -23.741471 -20.263243 -20.270822 -20.263243 -17.252896 -17.259566 -17.252896 -14.654446 -14.660298 -14.654446 -12.417459 -12.422577 -12.417459 -10.496692 -10.501155 -10.496692 -8.851725 -8.855604 -8.851725 -7.446581 -7.449943 -7.446581 -6.249362 -6.252268 -6.249362 -5.231886 -5.234390 -5.231886 -4.369337 -4.371489 -4.369337 -3.639944 -3.641787 -3.639944 -3.024663 -3.026238 -3.024663 -2.506895 -2.508237 -2.506895 -2.072220 -2.073360 -2.072220 -1.708150 -1.709116 -1.708150 -1.403910 -1.404726 -1.403910 -1.150237 -1.150925 -1.150237 -0.939201 -0.939780 -0.939201 -0.764051 -0.764537 -0.764051 -0.619071 -0.619480 -0.619071 -0.499468 -0.499812 -0.499468 -0.401269 -0.401562 -0.401269 -0.321246 -0.321497 -0.321246 -0.256849 -0.257069 -0.256849 -0.206169 -0.206368 -0.206169 -0.167914 -0.168102 -0.167914 -0.141405 -0.141592 -0.141405 -0.126598 -0.126795 -0.126598 -0.124123 -0.124342 -0.124123 -0.135349 -0.135603 -0.135349 -0.162474 -0.162779 -0.162474 -0.208644 -0.209017 -0.208644 -0.278097 -0.278559 -0.278097 -0.376346 -0.376921 -0.376346 -0.510387 -0.511102 -0.510387 -0.688949 -0.689837 -0.688949 -0.922779 -0.923878 -0.922779 -1.224966 -1.226320 -1.224966 -1.611303 -1.612963 -1.611303 -2.100694 -2.102716 -2.100694 -2.715589 -2.718039 -2.715589 -3.482467 -3.485418 -3.482467 -4.432341 -4.435876 -4.432341 -5.601296 -5.605507 -5.601296 -7.031045 -7.036032 -7.031045 -8.769494 -8.775367 -8.769494 -10.871302 -10.878180 -10.871302 -13.398430 -13.406440 -13.398430 -16.420652 -16.429929 -16.420652 -20.016011 -20.026697 -20.016011 -24.271205 -24.283445 -24.271205 -29.281860 -29.295804 -29.281860 -35.152688 -35.168484 -35.152688 -41.997477 -42.015272 -41.997477 -49.938897 -49.958831 -49.938897 -59.108087 -59.130290 -59.108087 -69.643991 -69.668578 -69.643991 -81.692415 -81.719480 -81.692415 -95.404773 -95.434386 -95.404772 -110.936507 -110.968707 -110.936503 -128.445154 -128.479941 -128.445142 -148.088047 -148.125370 -148.088009 -170.019654 -170.059395 -170.019530 -194.388571 -194.430490 -194.388169 -221.334220 -221.377802 -221.332917 -250.983452 -251.027412 -250.979221 -283.447583 -283.488287 -283.433851 -318.821627 -318.847931 -318.777062 -357.191342 -357.167607 -357.046728 -398.667228 -398.475643 -398.197939 -443.504720 -442.743303 -441.983092 -492.723413 -489.793631 -487.765690 -547.058021 -536.151743 -531.437846 -575.588316 -557.943737 -550.225182 18409.959252 18405.781260 18554.763422 17758.588390 18634.164592 20881.804019 22399.535639 18558.631281 19654.384927 19254.928039 14143.266497 13096.725131 12842.325494 13273.295206 12858.226003 11642.152364 10287.029695 8070.758364 6962.008321 6758.256779 4738.528707 2025.189959 3520.933362 3781.878892 3623.556448 3216.242736 2697.944187 2154.616762 1626.567529 1127.365378 661.416438 233.578880 -148.775639 -477.926148 -748.748410 -960.370488 -1116.093363 -1222.163252 -1286.227262 -1316.053879 -1318.734448 -1300.325478 -1265.789674 -1219.095756 -1163.379519 -1101.111210 -1034.242538 -964.318977 -892.537830 -819.687967 -745.813288 -667.367308 -597.086700 -566.822412 -553.798536 -549.092342 18294.901075 18106.474933 18000.269529 18772.629373 20241.655919 21134.031222 19840.698784 18093.748164 18337.619596 17940.803735 15577.363159 14648.909438 14064.336684 13673.930325 12985.557799 11992.209513 10708.812140 9105.756815 7904.060090 6889.807767 5778.633175 4715.379276 4291.475003 4083.090099 3736.645196 3258.786159 2714.818762 2162.022156 1630.195922 1129.356631 662.708937 234.629543 -147.765728 -476.908502 -747.752064 -959.446063 -1115.280778 -1221.480846 -1285.674167 -1315.617292 -1318.396543 -1300.068032 -1265.596469 -1218.953572 -1163.278660 -1101.046812 -1034.219464 -964.368866 -892.776283 -820.512434 -748.540821 -678.280491 -616.859391 -580.755021 -563.103057 -556.456850 18257.691212 18102.987532 17843.665951 17961.124439 18490.766183 18773.927955 18350.771561 17951.515298 17721.997035 17145.586861 16102.062195 15204.329960 14515.491381 13847.752043 13099.959215 12213.365457 11144.779476 9938.301128 8769.436982 7678.691618 6597.667675 5605.523540 4888.093519 4355.972085 3849.103877 3302.628653 2731.759650 2168.736750 1632.937876 1130.412071 662.911350 234.308936 -148.428744 -477.768272 -748.680325 -960.342879 -1116.082902 -1222.159575 -1286.226076 -1316.053542 -1318.734397 -1300.325586 -1265.790085 -1219.097102 -1163.383895 -1101.125442 -1034.288833 -964.469572 -893.027584 -821.283478 -750.949883 -685.230737 -629.994488 -591.961221 -570.695941 -562.084328 11001.716504 10960.453992 10845.929125 10437.262021 8966.264323 8338.658249 8277.893120 7084.326933 6498.815441 4885.839552 3578.228000 2851.678193 2286.208500 1877.071639 1466.932399 1067.568914 694.669792 356.944899 55.842031 -210.199739 -443.370499 -645.745265 -819.205932 -965.512139 -1086.329327 -1183.130830 -1256.639045 -1306.918858 11150.955640 11115.014578 10453.154465 10497.217075 12487.691377 11410.940992 14350.713093 12157.050349 11476.342053 12575.806509 11895.509944 12442.270934 13044.251965 12313.853214 11725.453178 9570.368413 12215.271639 10575.679430 11067.995917 8954.730370 12850.361686 9089.556366 11150.234186 11619.238002 10961.813931 9914.452558 2729.564416 5066.154122 11185.268552 10517.608618 9379.168495 12254.851428 10937.539768 9420.562232 12309.117850 7814.482405 11956.338732 6315.747233 11832.516201 12567.858850 13545.037209 11659.820170 11206.953138 11456.489488 11882.480453 6325.646876 10905.392375 7812.924080 11360.445748 8632.438200 13029.026584 8389.982516 10341.969986 6349.763362 7651.565426 7917.425013 10904.646370 10654.289923 10952.358016 9777.311285 9531.108981 9521.299415 8290.237068 7228.973887 10556.689984 14435.620757 12347.071587 10862.993442 14387.925077 7740.436289 9684.293468 4653.392467 8201.254193 3330.554456 10815.039615 10608.041640 7983.923322 10582.436930 11982.057662 7710.962550 9095.197512 8565.997941 8947.052014 3721.170727 10877.359754 11333.504208 12868.395612 12155.806740 9958.287282 10648.855292 13338.998991 11150.450797 11959.193047 9559.304832 11872.641570 3257.004186 5103.683099 7397.306202 10861.946683 10457.487891 6959.643774 13039.105444 10532.577195 12102.692716 7765.008564 11236.199993 5377.710428 4909.656917 3475.346811 3934.718069 5617.028549 3140.270562 11479.122163 11831.808553 12328.686171 12795.780178 12384.023654 10922.325537 12993.232468 11948.166672 13802.883427 6414.123557 4902.885731 11302.712843 7023.290936 7385.053260 9053.603870 6130.873532 5501.765353 3115.503407 4133.905865 4369.217293 7279.272260 3226.513668 10263.636004 6556.653150 5971.957851 7153.407272 3548.156476 3741.328271 12191.868215 11967.288790 10760.253497 12854.159517 10386.871497 7577.138109 10993.455641 10144.240588 12720.106768 7881.818612 9776.655267 10683.204189 10040.485281 5787.993887 9923.918307 7586.120875 9812.263594 2928.567474 9943.424764 8162.346317 12409.655976 4682.199300 2957.441496 4701.660959 2516.933024 2555.101129 3488.708930 3116.494251 12552.341329 12221.996689 10581.321270 10372.768656 12749.234982 11467.070462 10231.425623 7582.731938 14004.791029 5904.264959 5118.764072 6391.467753 13564.627120 9275.347761 12674.509864 9844.377599 5516.903697 9360.636166 9841.225905 5182.564687 5970.440183 9785.935477 3923.968977 8638.656153 8022.874507 5960.434240 4127.556426 4009.086936 12667.706227 13365.791139 13243.663936 13477.319384 12295.415677 13488.160008 10893.565915 12403.877182 13657.780381 11466.919265 12844.458620 11145.634245 11803.208788 6855.394706 4235.029663 13606.498169 11404.458387 10048.582771 3553.249964 4603.317716 5317.522343 3723.858434 4673.249524 3810.506468 8072.080212 4082.158756 4397.666702 3669.244727 12691.324645 12851.841321 12717.656740 14525.955011 14193.706095 13511.114770 11971.586969 9788.859926 8673.248179 6797.437230 9982.931182 2724.541467 7640.655631 9422.142754 5909.370245 7106.772421 5867.684442 9138.999171 7609.629393 10770.753227 4167.747346 4093.649574 4977.287027 6667.355296 3535.396504 3473.057179 2514.619695 4868.525713 12807.762545 11322.346998 9416.077971 13749.161069 12877.997822 12777.719508 10529.906444 15455.119687 3866.662792 12248.790033 5668.138099 10298.695613 7348.466444 4030.021789 8905.553857 7926.563448 5603.688081 7380.718937 8111.131712 6108.453111 7233.095043 3315.116321 9895.622285 8490.741766 4859.425114 5300.124839 6522.578181 3352.525721 13059.748758 11691.430621 9502.760350 13499.128011 11099.670356 12422.996184 11122.713339 11835.307854 8715.448211 8175.499872 7541.612785 6349.762327 10214.420427 10202.518214 8141.216664 6153.255195 9701.856071 4743.241926 3620.601863 5012.871717 7186.940066 9708.663515 3289.808913 6937.742039 5504.241795 5481.238611 2555.359922 2730.592577 13333.841725 13689.961610 13085.103278 12228.589423 12536.927227 11053.092256 7562.777240 11165.547080 7248.665355 9722.881247 7238.089583 10517.301520 10574.472824 2242.649578 6401.012236 4049.426161 10137.221708 4893.058712 5012.912946 8547.365118 8435.011660 4576.914679 8683.822725 4474.678384 6720.381616 4067.382916 6440.228658 3818.992288 13442.602267 14004.157070 13099.608113 13421.224730 10174.192684 10809.327687 10829.147559 10248.490247 7232.791044 12040.694388 6887.341219 5441.698879 3840.707271 1951.819875 3111.513923 7084.893185 8055.196667 3189.627638 4495.216156 5794.562071 3937.382675 3027.713880 2527.284250 7125.511410 4077.122417 4308.214089 7552.986889 2549.558092 13260.799263 12988.081374 11340.089540 13809.866437 12644.035976 11784.595994 11798.006026 12269.599549 10656.194569 4370.688924 8501.811026 6038.485030 2887.570866 4008.253006 7606.515827 7094.805997 7484.532317 4395.504767 5219.282373 5107.141855 3702.099260 3490.876697 3747.048424 4615.539257 4119.592092 3284.423971 3563.779333 3649.181095 12952.690415 12619.024801 11924.104008 11478.011599 13220.639035 10896.874698 12866.103955 8746.923205 8119.708562 8835.182150 8114.634565 4115.459505 7420.746036 12741.284894 12814.972044 13107.019571 13127.967760 11711.079683 11624.974376 10508.371659 8437.816952 10784.905234 4372.512890 4303.710211 3854.146806 3550.267718 12764.915616 13503.220042 14728.385891 12995.792636 10297.695409 9814.162391 3572.351790 11875.073200 8806.450048 3746.636672 5062.064222 8435.364584 6999.184074 13087.753346 14634.047891 16386.361181 12760.451632 11583.893788 9019.125619 7020.557176 10342.926235 3722.832355 5729.657814 2274.775015 3230.318791 4665.033821 13501.560338 15188.279683 16627.218882 13100.665467 11468.416021 11610.715215 9995.386727 3370.182280 5899.035322 7134.096083 8426.220388 12069.020437 6137.435403 13686.234694 14170.253178 14451.514955 12263.800595 15365.454202 12884.666472 8628.157043 10295.158972 1619.230924 1866.340577 7569.546966 4825.706673 4961.181477 13707.123224 12884.786864 11481.906762 13062.305928 13127.108961 11850.028706 6318.430186 7042.355756 6538.631637 5789.199479 8249.955506 3108.491105 6192.301760 13820.307222 12284.113668 10393.021202 12675.867788 11349.450527 5528.576863 3214.398067 6488.744644 3494.517123 9875.013049 4445.387805 5848.226324 7824.710882 13909.494715 13163.078209 12173.517195 9983.811883 10994.389132 7331.140148 9149.062561 8203.378492 8357.376555 8097.943465 4405.123778 7178.525063 9288.358152 13834.875326 13777.716236 13210.028778 13397.026309 13614.319727 11500.872760 8574.177582 7365.656810 7852.621129 7639.231454 5851.526489 5235.601207 9710.887944 13701.252576 13985.160931 14154.943960 13361.385182 9928.285811 12020.556460 8070.586063 7043.793405 8787.300809 12654.943224 6130.733399 6316.790094 15839.590135 13646.012774 13831.198053 13992.566356 12134.809076 14583.662044 11815.693027 10445.747134 11439.246900 6082.849127 7693.866886 9343.307975 6247.276580 4986.469413 13789.196625 13429.230437 13104.573102 12353.897615 12166.090048 15425.900942 10795.171248 10630.834793 5193.314368 8070.516695 8325.463645 4931.242140 5592.594491 13858.857854 13251.835277 12540.829041 11742.391648 11048.817234 9095.704001 15789.926225 9809.430764 5754.210517 10673.516286 4612.126550 6159.015789 5038.834184 13644.988969 13570.488912 13229.113647 13137.522588 13390.378612 13095.853226 12693.781841 16578.738678 8904.068427 11754.762607 3567.327027 6840.703558 5734.330559 13472.178212 13923.339716 14139.306631 11262.038122 10413.929392 13041.423408 13328.800072 11091.426915 8913.196157 11003.445649 4409.895823 8949.159814 6024.247974 13548.216141 13640.968618 13225.246136 8476.208998 15885.176491 10714.991584 11911.619106 12127.852476 5105.896853 7052.631391 5329.792924 7128.371367 7508.798013 13689.924277 13999.216209 13707.492411 13898.869528 11359.248851 12358.729099 10217.129661 10075.268529 8689.953995 12189.463449 6419.911000 6827.412541 15653.825170 13664.397392 13372.447106 12852.437674 12564.206389 16087.476251 13340.599077 10495.025674 11915.736791 9788.799882 6812.316829 8922.956309 11023.695322 6876.822298 13642.146741 13408.319958 13262.093414 12577.888878 14904.910170 11876.878360 10920.181508 8666.564742 8289.148790 11586.908461 12347.443294 6788.758894 -22737.967430 13816.608410 14503.587497 14615.312246 10763.578163 14275.586068 14632.660711 10203.485656 6262.421240 11673.589979 5832.396052 6348.038940 3098.627433 6451.628370 13985.463710 14601.001064 14301.879454 14399.955409 11266.924289 14367.342719 7803.679788 11697.468118 8225.561551 6928.863914 8827.314543 8832.734714 6713.605946 14138.490589 14611.036291 13903.454690 14757.572355 15193.797613 11214.259987 10283.055618 9270.963835 8289.441985 6970.008561 7915.685164 6992.654256 10812.061680 14262.059378 15279.859639 14870.862648 15329.309725 14186.143462 13235.944646 13187.297940 10592.958636 7360.757281 6779.919107 6607.266609 8010.572208 3933.184489 14057.399757 14968.390918 14696.239449 14496.348002 14995.610272 15287.372024 8006.617112 12813.401870 8916.345390 9600.961537 12895.903886 10294.725697 6500.793656 13705.170074 13904.158644 13259.280516 13355.103120 14227.365138 7753.104978 11900.442960 10423.521295 13237.957163 13172.699592 11554.393589 12053.214247 7928.180703 13588.165037 13431.522705 12770.444169 14167.077249 15761.714822 13529.428824 5979.889447 17073.186804 9573.650471 11263.105121 7507.574332 8629.839878 9269.299182 13646.942252 12711.100552 11947.717420 15605.993441 16951.083874 15374.752080 7944.065112 13968.317084 8410.216013 9783.772698 13448.659185 8602.699506 5415.949290 13831.272283 13447.504314 13044.439403 15734.171580 12089.043940 13593.503642 14820.963894 12851.291511 9673.606008 11510.138943 7206.833786 6746.611840 5156.658221 13950.155538 13745.870807 13521.262126 16407.897601 16751.885981 13471.765622 17333.439628 15098.577209 7914.951652 9887.591483 3843.474222 8208.098693 8910.012843 13933.715108 13418.070755 12937.143508 16054.718512 17696.435626 7149.726057 11069.319434 16659.966291 17866.277624 12440.164590 11144.333888 10244.897579 7539.240523 13930.718196 13573.925105 12877.960704 16286.344653 12045.137394 7621.730785 11750.672471 13439.034036 8917.042842 8624.884996 8130.745240 9200.450203 11400.146211 14045.371068 13550.913266 12776.478763 16167.808495 14522.793880 13589.269689 12127.102709 12945.209314 13591.371456 9851.520128 6221.162633 10890.892373 6719.155599 14232.553402 13869.037281 12965.668599 16452.631921 14117.334931 14490.252661 13223.578181 10841.640743 11819.664807 11345.793828 11724.802763 6451.483111 7732.012026 14412.072233 14389.843988 14070.641585 15671.932197 16048.275095 14415.891046 16380.188686 13775.705133 12463.330145 13525.290991 16078.436455 4714.279864 8955.028780 14800.044771 15027.752893 15284.565680 16831.770787 17041.857489 18376.603514 15194.704476 14125.076763 10395.700503 9044.497069 8915.164949 9003.262639 9393.021192 15486.623349 15726.265211 14780.211294 18019.965590 17283.736827 16239.693622 13234.909154 15558.666143 11920.994865 9341.981755 9619.624671 9538.786799 5857.344179 16013.158295 16484.651704 14162.786357 17598.874216 17487.261289 15843.143550 17460.177059 9663.387886 14988.902569 11181.282709 8495.148974 10354.132992 9019.119887 15999.367889 17018.329808 15459.573431 18123.826237 15689.295500 15629.974757 10969.739250 7966.614698 9372.942555 13126.753195 8833.459509 4578.396092 16560.312415 15699.958858 17173.617376 17468.073448 18571.974226 13610.485747 16954.747008 13193.868553 9302.546731 11933.313288 10836.184619 8659.554107 3508.350384 7121.360938 15655.098347 16771.600011 17478.702633 17821.417442 19214.847639 13377.361149 15768.670700 12766.933604 11581.105361 9979.640913 11000.455449 11857.398979 9532.215879 16072.617246 16894.696568 17419.033762 17384.987690 17489.539627 17361.984151 12815.579488 12170.377698 15882.689709 11450.483341 9796.515287 11027.535449 12356.222048 16633.855011 17015.573295 16693.415106 18244.403678 15101.266890 20830.844813 15059.184710 15211.785985 17508.165758 8348.346544 10257.661781 14083.960263 13942.143203 17003.152558 16951.536317 16228.339443 18934.098161 16022.147477 15075.177596 15206.145035 12902.237888 10489.916699 12772.540516 9842.964862 6928.297174 6170.440241 17075.128448 16520.241245 15434.954931 18802.923080 19877.123054 14198.810545 12087.033435 17471.076965 13290.193656 13091.636374 7532.544021 12792.697626 3570.324188 17075.639927 17072.682358 16742.611739 16441.396866 18492.194450 17984.433571 13381.599611 16955.276502 15083.960406 13453.996451 7507.319852 13333.746042 9674.180743 17176.488628 17319.386735 17076.927868 19469.850327 16381.335294 13365.296755 12555.021532 14854.036265 15060.516874 12078.655116 7121.568760 13513.961727 4363.517860 17488.751710 17764.269637 17403.086813 18021.207772 16590.518655 11943.803663 17920.671293 16194.386491 12899.703651 11314.902781 9830.258395 13720.651349 6171.181366 17905.972875 18132.150336 17579.276547 18422.681440 19410.858688 16635.057676 11277.637527 12667.277940 12308.266863 15378.308398 10621.311165 6471.684845 8430.267818 18315.835153 18666.454149 18486.046543 17968.821875 20583.267223 17438.260446 17470.764836 17455.865119 15383.618142 14656.237171 7342.729461 12393.744797 11593.991666 18667.934413 19262.200046 19978.979801 18639.767491 13896.631796 17747.834545 16679.583525 16478.263959 9964.684344 7745.929054 15830.314537 11230.321046 15366.132173 18876.008970 18849.422220 18490.617195 20009.362553 16673.173618 17319.264635 13702.176077 13283.127169 15741.823937 12068.569372 11322.188559 9022.757469 12251.116097 19020.616509 19090.670174 18343.724150 19849.058477 18046.137862 17807.576405 17714.934651 15565.441993 15995.736419 13311.604082 12889.810116 13032.608497 20950.237404 19049.706314 18917.004247 18279.776749 21052.049409 17722.190799 18824.093033 10270.619285 19323.626291 13694.757655 8263.047695 12819.191166 12214.506331 10108.031828 19052.175854 18587.833614 17654.605789 22539.136746 19656.259981 19515.049948 11277.344856 16369.532791 18735.952188 12764.475355 14132.116428 7834.468554 12979.880042 19195.415733 18162.349113 15913.394978 19579.056757 17230.437339 16970.239086 17323.803584 14529.780042 12141.259351 12299.632321 12225.403782 16118.174540 14589.365218 19447.226110 18943.113462 17543.336294 20806.644405 19027.786130 19097.083120 12956.680241 18479.413948 15587.392176 11606.343178 14635.503241 13100.722793 6390.606500 19579.119470 20154.275309 20836.882663 20631.123550 22515.433537 15694.684682 18416.320549 13607.474377 16028.944540 12695.098360 8039.040199 14871.530653 11010.492295 19555.537599 20299.363003 21075.412614 18607.688277 17741.373703 18117.777544 8925.971759 12909.099860 4512.904298 9932.715062 11158.496682 15634.794221 15961.742243 19583.978472 20212.447861 21331.633681 19294.511536 18627.218917 19278.984255 16597.279671 12294.187404 15115.275209 13769.577114 13858.961605 13593.936161 11667.773518 19765.180361 20033.819986 21060.717181 20149.316683 17434.901012 15563.371599 14412.583403 15874.860317 17322.900564 15428.842694 10249.680989 13708.747931 3155.833561 20040.095357 20127.150136 20465.379529 19892.863721 17660.124359 18696.352073 17753.589725 14707.909196 14568.260769 15257.773429 11546.238543 13421.181858 15210.127877 20232.797362 20773.489961 21483.148174 19673.892467 19129.751430 18410.715494 17889.145013 17764.994822 17992.252775 9799.258426 15367.483522 13041.171013 13805.778542 20237.883430 19754.597029 19326.388636 19348.492768 19193.882011 12706.086751 15220.837145 17554.179729 14954.110128 15728.243445 13543.947365 13116.048521 13553.812333 20287.034410 19486.033691 18884.153433 19539.018448 19061.940094 18194.038640 18948.746082 20739.511225 16304.697117 19611.470365 14925.308988 13801.338329 14861.355557 20236.911342 19529.439324 20018.932944 18863.994031 17591.090560 19881.200447 14489.083011 17001.721557 18344.191654 17700.830378 17293.247366 14981.602300 10871.176470 20195.796095 20219.097670 21785.016349 20089.352142 18031.505362 22163.728896 15555.105005 16358.879773 14831.632742 14871.302590 13974.007767 13243.385699 13461.851449 20556.120830 22185.800063 25327.372262 19710.772139 18066.596227 15148.640028 18967.733167 18519.742731 14751.410912 13491.259760 14439.513977 14211.792619 11256.541841 20967.180312 21717.671494 21673.995249 18765.825711 15868.797649 17751.474158 19694.225734 20734.099349 12510.141410 18862.692868 15152.923017 13266.110065 13529.482681 21090.987888 21082.659549 19601.977395 17500.092653 17712.704736 21485.528571 14919.793497 14922.822202 16528.447982 18634.809201 13382.378736 18627.228180 14669.388043 20676.624372 20966.929886 20710.571808 17605.737216 17366.796382 17692.059606 15049.070870 19200.557430 16725.321737 19164.371696 8739.069831 10897.054098 5498.147269 20065.734783 21604.807400 23414.415425 21315.164968 16662.456447 19295.320013 18125.683200 20646.669293 19752.978392 17159.071582 18801.541391 15391.939921 13710.430239 19700.447118 21096.579167 23820.603604 20691.638146 15381.974295 17651.532145 20716.221399 17323.750046 13321.750026 14553.123848 14300.805599 14561.718333 12712.324321 19612.603467 19703.322672 20506.604247 20678.308710 17077.492116 19136.844436 12278.853206 16133.055572 12213.429612 11991.884038 15680.919846 14325.578698 10257.725170 19943.996058 21384.588788 22781.108918 22247.985390 21985.125641 17552.602011 16350.921858 16612.339381 15405.609693 17328.781771 16253.141957 15458.670541 15403.164905 20491.626308 22129.523527 22981.016233 15832.573879 20344.290669 17255.205112 16826.835654 20509.396408 14062.814310 15680.201150 11112.254132 11619.820100 31076.200938 20761.262922 22787.235987 24051.670033 21098.506587 17324.641407 17601.168679 19302.718679 12230.567897 16693.203015 11227.737515 15118.316451 12669.455821 10415.268485 20312.162616 21695.116459 23533.283592 17300.355619 19534.764457 17278.069878 18740.078662 18996.132226 18301.493458 18865.808440 15928.857089 13636.424189 15360.301751 19685.049210 20896.439571 22809.645266 14919.750859 18138.982587 19300.856739 13607.766908 12043.342821 20350.561756 18034.983697 15367.966044 13319.837255 8410.813426 19424.591121 18807.684496 18285.021110 20198.049694 17714.855946 19229.956474 18180.274375 15904.192717 15822.955713 11858.468265 17140.883463 18723.648916 11638.828131 19373.296416 17526.961262 15119.629237 17694.629775 19633.312681 22281.732956 19048.028358 22126.171894 20187.259846 18729.282088 16210.341606 18323.984820 11601.980691 19228.022075 18488.871736 17873.304209 19680.444489 19622.125674 16916.845198 15794.009738 20572.359218 19690.553018 20505.700457 20033.480973 14561.086493 16577.394872 18920.874119 17701.276410 17161.122224 19640.708831 20827.533405 18539.014701 18606.665352 15587.648862 20083.087836 20642.425130 22729.004659 20749.966220 9010.269510 18767.462978 18336.307220 17817.951916 18313.520693 17305.563541 19859.192721 21279.334971 17039.165650 19839.028710 18670.450029 18316.391272 17476.788284 19506.680155 18611.386785 18879.102688 19058.288462 20549.212981 19696.752062 19242.936274 19693.998636 22978.051327 18326.550630 19301.824969 18051.983661 20066.063465 20281.452050 18409.959252 18405.781260 18554.763422 16924.295562 19217.953460 21158.344224 20006.215492 19373.366268 20870.238494 20434.062267 21203.160618 20718.297876 16388.826151
</DataArray>
<DataArray type="Float64" Name="Velocity" NumberOfComponents="3" format="ascii">