<VTKFile type="PolyData">
<PolyData>
<Piece NumberOfPoints="2177" NumberOfVerts="2177" NumberOfLines="0" NumberOfStrips="0" NumberOfPolys="0">
<PointData>
<DataArray type="Float64" Name="Pressure" format="ascii">
 17690.615944 17623.089408 17254.572432 16402.839628 15161.541823 13794.615955 12448.961715 11058.957263 9504.901739 7779.406898 6028.715016 4408.814172 2762.477047 935.767120 -348.572695 -596.392051 -208.448612 -12.421593 -494.654672 -1151.665781 -1425.655103 -1530.752801 -1984.821126 -2852.176516 -3539.389635 -3744.767878 -3622.057840 -3351.966346 -3019.967923 -2669.130670 -2328.016053 -2008.359016 -1711.991744 -1438.895504 -1189.908388 -966.627293 -770.558535 -602.407153 -461.739069 -346.985503 -255.673652 -184.760846 -130.975405 -91.103324 -62.193245 -41.676974 -27.417781 -17.705212 -11.215818 -6.956679 -4.205535 -2.458120 -1.384620 -0.772837 -0.464148 -0.343501 18205.140574 18400.014592 18318.769962 17606.317705 16307.207641 14949.578063 13743.556493 12337.925571 10513.063893 8396.849876 6184.495106 4401.085489 2802.929495 -72.819492 -1675.549452 -1339.657009 -125.578666 684.728680 -477.751790 -1701.756376 -1596.702535 -1189.926468 -1760.307829 -3434.383768 -4062.413693 -4029.691717 -3772.182105 -3447.087825 -3077.706481 -2693.509467 -2336.833978 -2011.455065 -1713.226174 -1439.562804 -1190.423447 -967.111440 -771.035215 -602.868443 -462.169744 -347.372185 -256.007985 -185.039917 -131.200872 -91.280046 -62.327889 -41.776838 -27.489915 -17.755777 -11.249429 -6.975027 -4.203443 -2.422056 -1.308300 -0.709408 -0.429551 -0.325208 19014.379347 19362.110713 18894.105183 19050.999241 17788.307337 17048.940528 16301.047172 14168.735601 11131.883028 9233.720921 6100.852121 4319.798165 4255.199057 -2536.345483 -4608.235492 -2376.420378 415.311067 2710.015211 -661.821281 -3248.805842 -1967.552656 -347.709339 -936.961337 -4599.994438 -5182.955266 -4411.593948 -3962.721771 -3596.269230 -3189.780309 -2726.007901 -2345.473425 -2013.752029 -1713.646384 -1439.401186 -1190.062486 -966.674183 -770.572798 -602.411493 -461.740390 -346.985905 -255.673775 -184.760883 -130.975415 -91.103323 -62.193229 -41.676914 -27.417559 -17.704396 -11.212836 -6.945796 -4.166547 -2.305657 -1.086040 -0.572734 -0.369719 -0.294649 -0.581492 -0.376423 -0.287692 -0.316268 -0.251177 -0.209776 -0.156438 -0.142008 -0.128252 -0.081312 -0.077712 -0.073524 -0.042495 -0.041661 -0.040367 -0.022095 -0.021939 -0.021515 -0.011360 -0.011355 -0.011202 -0.005758 -0.005776 -0.005716 -0.002874 -0.002889 -0.002862 -0.001411 -0.001420 -0.001408 -0.000681 -0.000686 -0.000680 -0.000323 -0.000326 -0.000323 -0.000151 -0.000152 -0.000151 -0.000069 -0.000070 -0.000069 -0.000031 -0.000032 -0.000031 -0.000014 -0.000014 -0.000014 -0.000006 -0.000006 -0.000006 -0.000003 -0.000003 -0.000003 -0.000001 -0.000001 -0.000001 -0.000000 -0.000000 -0.000000 -0.000000 -0.000000 -0.000000 -0.000000 -0.000000 -0.000000 -0.000000 -0.000000 -0.000000 -0.000000 -0.000000 -0.000000 -0.000000 -0.000000 -0.000000 -0.000000 -0.000000 -0.000000 -0.000000 -0.000000 -0.000000 -0.000000 -0.000000 -0.000000 -0.000000 -0.000000 -0.000000 -0.000000 -0.000000 -0.000000 -0.000000 -0.000000 -0.000000 -0.000000 -0.000000 -0.000000 -0.000000 -0.000000 -0.000000 -0.000000 -0.000000 -0.000000 -0.000000 -0.000000 -0.000000 -0.000000 -0.000000 -0.000000 -0.000000 -0.000000 -0.000000 -0.000000 -0.000000 -0.000000 -0.000000 -0.000000 -0.000000 -0.000000 -0.000000 -0.000000 -0.000000 -0.000000 -0.000000 -0.000000 -0.000000 -0.000000 -0.000000 -0.000000 -0.000000 -0.000000 -0.000000 -0.000000 -0.000000 -0.000000 -0.000000 -0.000000 -0.000000 -0.000000 -0.000000 -0.000000 -0.000000 -0.000000 -0.000000 -0.000000 -0.000000 -0.000000 -0.000000 -0.000000 -0.000000 -0.000000 -0.000000 -0.000000 -0.000000 -0.000000 -0.000000 -0.000000 -0.000000 -0.000000 -0.000000 -0.000000 -0.000000 -0.000000 -0.000000 -0.000000 -0.000000 -0.000000 -0.000000 -0.000000 -0.000000 -0.000000 -0.000000 -0.000000 -0.000000 -0.000000 -0.000000 -0.000000 -0.000000 -0.000000 -0.000000 -0.000000 -0.000000 -0.000000 -0.000000 -0.000000 -0.000000 -0.000000 -0.000000 -0.000000 -0.000000 -0.000000 -0.000000 -0.000000 -0.000000 -0.000000 -0.000000 -0.000000 -0.000000 -0.000000 -0.000000 -0.000000 -0.000000 -0.000000 -0.000000 -0.000000 -0.000000 -0.000000 -0.000000 -0.000000 -0.000000 -0.000000 -0.000000 -0.000000 -0.000000 -0.000000 -0.000000 -0.000000 -0.000000 -0.000000 -0.000000 -0.000000 -0.000000 -0.000000 -0.000000 -0.000000 -0.000000 -0.000000 -0.000000 -0.000000 -0.000000 -0.000000 -0.000000 -0.000000 -0.000000 -0.000000 -0.000000 -0.000000 -0.000000 -0.000000 -0.000000 -0.000000 -0.000000 -0.000000 -0.000000 -0.000000 -0.000000 -0.000000 -0.000000 -0.000000 -0.000000 -0.000000 -0.000000 -0.000000 -0.000000 -0.000000 -0.000000 -0.000000 -0.000000 -0.000000 -0.000000 -0.000000 -0.000000 -0.000000 -0.000000 -0.000000 -0.000000 -0.000000 -0.000000 -0.000000 -0.000000 -0.000000 -0.000000 -0.000000 -0.000000 -0.000000 -0.000000 -0.000000 -0.000000 -0.000000 -0.000000 -0.000000 -0.000000 -0.000000 -0.000001 -0.000001 -0.000001 -0.000002 -0.000002 -0.000002 -0.000005 -0.000004 -0.000004 -0.000011 -0.000010 -0.000008 -0.000028 -0.000022 -0.000017 -0.000072 -0.000043 -0.000029 -0.000115 -0.000058 -0.000036 9721.609463 8838.552548 9179.752153 11423.174494 8341.144891 8648.433601 7501.919158 3950.406492 2392.632084 4751.155121 6838.326882 676.350320 501.645080 -334.346699 -340.133968 -588.797481 -886.613876 -1036.876179 -1042.456492 -960.015710 -838.770085 -708.615487 -584.577928 -473.031613 -376.028142 -293.667489 -225.198242 -169.463324 -125.076577 -90.520344 -64.232750 -44.693997 -30.501209 -20.421292 -13.417890 -8.654789 -5.481839 -3.410380 -2.084364 -1.251705 -0.738633 -0.428322 -0.244077 -0.136672 -0.075197 -0.040649 -0.021586 -0.011259 -0.005764 -0.002890 -0.001402 -0.000606 -0.000203 -0.000085 -0.000046 -0.000032 10144.849020 8971.701854 6512.008935 6870.819369 5122.148239 6371.417984 7272.490526 2888.189089 1223.606936 4193.977191 4987.771128 472.541511 -235.314621 -165.288267 -330.060409 -633.099111 -909.943696 -1045.055716 -1044.626565 -960.503385 -838.959199 -708.815896 -584.813583 -473.279932 -376.271451 -293.896235 -225.407120 -169.648955 -125.236914 -90.654746 -64.342017 -44.780178 -30.567208 -20.470428 -13.453497 -8.679939 -5.499175 -3.422054 -2.092052 -1.256661 -0.741761 -0.430257 -0.245250 -0.137370 -0.075604 -0.040881 -0.021716 -0.011331 -0.005803 -0.002912 -0.001420 -0.000649 -0.000261 -0.000108 -0.000052 -0.000034 10692.863286 10255.947866 9442.061023 8957.784367 7348.638962 6254.461308 5288.311933 2888.524000 1358.263451 1935.521267 2103.869644 588.516464 -123.171964 -218.030338 -384.637104 -684.097523 -939.440205 -1057.880498 -1049.370047 -962.014371 -839.287905 -708.734345 -584.600574 -473.034291 -376.027754 -293.667055 -225.198032 -169.463242 -125.076549 -90.520335 -64.232747 -44.693996 -30.501208 -20.421292 -13.417890 -8.654789 -5.481839 -3.410380 -2.084364 -1.251705 -0.738633 -0.428322 -0.244077 -0.136672 -0.075197 -0.040649 -0.021586 -0.011259 -0.005765 -0.002894 -0.001416 -0.000665 -0.000294 -0.000126 -0.000058 -0.000035 19373.364393 19202.276071 17954.119591 20264.120774 19206.906952 18158.580087 16501.826385 14459.055705 10330.944324 8909.523693 4035.124205 1162.703911 5205.877205 -3944.195836 -6392.002668 -2786.193318 691.008747 3479.831746 -948.872341 -4053.304189 -2156.460369 129.560186 89.799541 -4280.921588 -5428.573771 -4535.160978 -4019.488649 -3660.884683 19871.871287 18939.673328 17272.859545 20990.159780 22204.993758 21955.507137 24434.879348 19237.081953 20388.784511 18965.941395 17621.708532 18004.751157 20940.754683 17480.665601 22551.992561 19437.995813 17701.036807 20797.253347 9896.226193 13383.394050 10861.841485 12378.324738 11228.550088 11938.793434 10755.200760 8476.571018 408.391717 -4303.713899 20134.216719 19678.655329 17319.409449 19154.724608 20626.151171 19911.862274 23306.452958 20589.244961 20391.449609 15064.033855 16659.631352 18579.675839 15843.817446 17342.734633 14290.709992 14765.761389 18612.929347 17932.844110 17472.873449 8461.996322 9025.247593 9730.924945 8055.291394 6097.210696 4182.764580 3780.686085 2747.104821 60.902571 20169.580269 21568.983248 22826.787600 21101.527423 20776.615111 23721.794976 16563.109914 18608.666820 18268.863698 16852.255967 16878.045817 20606.087746 14376.377901 12408.871494 16633.420853 12264.173703 13051.246436 11716.928577 8749.144266 12999.885307 8937.874253 7793.684810 8854.692441 4760.632845 3843.128555 3762.445812 2227.669054 2317.036742 20168.909572 21806.704095 22307.270653 24801.641032 20773.803018 22342.729141 19591.819757 20273.876024 21281.492958 20204.517811 18070.334462 16956.437309 14026.740317 10235.749927 15686.445451 14932.594330 13218.635582 15804.045843 17533.569130 9833.237979 5507.563056 9295.115138 8095.079585 5348.730167 1681.033808 2757.482922 821.770205 1162.167912 20727.892612 22528.741083 22833.902036 24472.543619 23585.278455 19533.365348 21874.510188 19781.732896 22813.975126 19609.644770 14129.769342 15920.964703 15943.943365 13836.166021 12820.726522 12455.934043 13496.318143 10503.955032 7863.463053 6363.980268 11134.576006 11816.321468 10983.510227 7408.140305 5727.590779 3069.549082 -123.531536 2389.140492 21497.461762 24526.340057 27404.909426 19448.810991 20875.433558 20196.149745 19083.861956 18342.918657 18476.040865 18651.438869 22706.748635 14817.606857 15268.571650 11368.860241 13667.104649 13033.317080 15126.289705 13262.457899 3881.212807 8993.487583 8833.147795 8624.673953 9599.428238 5478.146166 1339.535568 3452.658886 2675.898691 1967.300746 21781.746855 23584.114501 24578.393395 21729.680142 17858.549008 17473.220652 17700.952684 14649.634673 17272.478302 16713.289069 16119.300527 15089.473800 13879.202553 17724.156031 14070.297759 15253.231657 10812.430812 10508.916457 12667.164202 12840.366111 7916.708071 11609.544088 5444.395164 5057.379692 455.429783 2516.214134 2497.059523 1929.458561 21836.034880 22778.693795 21417.448688 19638.380613 19678.927972 19030.994315 19559.861193 21906.341770 17798.551635 22054.867080 16100.061688 19916.550088 12692.497330 15130.539313 11600.228804 11345.424077 12477.336582 11036.256436 5831.230400 11078.596907 5728.317654 5421.409408 4712.369496 4676.115735 8499.193091 1175.065325 1098.924988 2888.414503 21828.184138 23833.345362 25812.229035 23789.870661 18528.012080 18010.028391 20232.756274 19002.375175 17727.865766 17690.606168 13727.902027 14325.910540 12586.546539 12571.583068 9954.544291 8393.336023 6492.238856 12397.450633 8669.256352 9718.864331 8683.464223 6101.078741 4941.432225 8760.271930 4583.937910 1150.489613 1419.900102 1852.079096 21802.516222 23420.145287 26134.720007 22390.769125 19787.681661 19474.351710 16884.099600 16708.136369 16538.713083 16198.356554 14582.490474 16212.931118 13096.447618 12026.336547 10977.012943 11764.605650 7668.266714 11021.191005 5149.845369 8668.010575 11468.438666 3739.753597 5012.698945 5767.777270 3497.939345 2080.234882 2959.643945 1326.317291 22022.182861 22693.293449 23540.387575 21565.765338 19186.731542 17881.943020 18007.411667 17574.083544 13354.064359 16421.214761 11155.840369 19551.223192 11888.942541 15611.392927 8794.137791 11686.398086 8349.957560 5116.509406 6653.197962 7501.777736 8496.753117 8992.727720 2100.575337 6744.351701 5801.884637 4486.099999 2392.446045 1370.590427 22161.276607 23684.237394 26030.180128 21658.930332 20462.038182 17788.591529 15902.581564 15578.414895 12550.695715 16190.351389 13140.790220 11462.960573 14992.278869 3032.093312 4412.485049 1579.012860 8007.791997 4697.655062 6349.260369 12471.268778 8786.042349 10323.110635 6897.637183 7912.843677 5307.451484 3124.100949 6487.487506 5651.130766 21652.894620 23709.349859 24986.191381 19451.500572 20262.377266 19502.721631 17087.146756 17735.672075 14608.457242 17049.179719 12282.761919 7323.624779 6721.825379 2157.054100 845.989167 6769.093458 6834.360843 2047.229369 301.069927 3383.090305 3048.840480 5750.297878 5170.374901 7828.359649 4356.312176 6535.284106 4888.955378 1276.100743 21114.186356 21721.363655 21958.265301 20933.527794 17582.654265 20497.921239 19038.872304 17830.139337 15078.788383 12784.736715 8765.004140 6729.523919 2453.236467 -266.304113 2453.865666 1136.958318 -2736.283275 4437.697129 -749.168204 2165.905313 1631.145947 1986.947704 -995.084672 1410.720278 5565.135923 354.936894 4096.333087 1149.106306 21087.034707 24196.489867 27274.277603 17646.702647 17422.038445 16635.590425 16200.445665 15141.332020 11687.278908 7362.398374 5591.123821 1077.399424 2559.938731 21084.411146 22646.465410 21986.340162 20307.500585 21895.159739 21939.988089 19351.733404 14536.409207 15771.114067 12261.538506 4184.050464 2891.444278 3147.144424 21053.382252 22886.499013 23809.049814 20460.958808 17255.326707 19306.189187 15151.694565 12709.185854 9961.808149 8644.829214 2031.740429 3247.260579 3872.284997 21144.515807 20237.743545 18524.877418 21910.940576 19469.432728 16580.030728 15781.080327 12952.388021 11277.876815 7422.237063 638.375012 1982.290606 9175.209522 21744.196789 20229.674498 19357.437232 20946.580119 19639.776371 15575.793406 13238.262886 11556.761651 8392.181059 5197.290499 3830.332284 -1140.402538 2472.064266 22325.376987 21195.777180 21228.672161 15386.316966 16117.665929 19349.289138 15357.691789 10548.473711 9794.998844 -2492.592823 5831.132949 -517.274185 528.453044 22475.150733 22094.787063 22192.350955 18653.576198 18607.586530 16049.804722 13452.901986 13215.766349 7779.703372 6089.895759 7535.862159 5409.179199 295.651391 22616.844473 22405.923999 20522.717882 20823.835719 18134.530653 15165.735243 12050.824019 11395.462428 11768.700610 6575.849233 6690.671289 2662.300905 1692.894381 22911.453645 23205.082239 22807.025878 19231.916068 16243.981800 15458.768617 14902.889175 14012.715085 11100.242688 4967.859864 6401.861253 1864.804129 -13.355827 23053.288616 23115.417832 21809.131971 21841.403948 18746.579888 18009.069972 13932.591683 11371.431972 8639.230359 4300.393908 3832.758406 4868.163878 4438.336906 23140.519523 22881.448733 23545.093204 16731.358004 15571.937334 16734.408556 15658.237074 12024.381477 6164.909811 9376.620310 9339.512014 10738.392781 8415.022951 23328.647160 22656.311569 21849.030925 16305.045334 18470.409085 15781.172221 13885.658404 13918.115346 14693.541182 8659.088761 7293.649208 3536.378037 3323.072597 23609.459538 22956.923330 21071.488143 20138.008308 22166.099242 15306.675121 17859.702383 14667.875419 12298.611478 9876.219546 7557.080239 5171.354564 -1704.786508 23690.766972 23242.291271 20763.860971 20389.491667 17412.863491 18677.654696 15463.751989 11348.075051 12362.821821 10944.421318 7928.372651 6288.398656 3668.820539 23839.088316 24118.594510 22000.351345 22853.971062 16955.821919 18266.071729 15584.442514 13222.130854 12734.572817 7271.116126 9106.831408 3772.394894 747.926731 23877.408115 24994.802470 22883.887050 21537.607579 16160.811361 17266.798973 15733.052789 14358.504742 13275.058280 12095.901891 7723.976437 2203.334981 3339.445089 23678.885518 23207.209370 22019.196452 17207.164562 17630.637251 17435.572146 18142.074400 12819.828121 12600.036587 11208.016530 4890.817753 3336.081086 6059.252851 23800.231095 22086.787437 19450.272701 19106.508257 19659.623190 19227.492041 16457.622997 12670.898548 12675.407005 10894.847003 7137.046710 3824.436497 -3172.722744 24164.918138 23090.979394 20648.487019 18425.083696 17778.228941 20446.658118 14590.727372 15703.269987 12716.880544 7604.889338 9302.256676 6651.759032 6585.314399 24255.508713 22262.556407 21388.639435 18177.715677 20583.233812 18283.024833 15245.095770 14694.241906 10058.505074 10648.391241 9170.153798 8063.265415 4017.219828 24255.158630 22504.513826 19921.980190 19327.272755 17180.217380 19003.281705 15923.049277 13847.431116 12092.592113 13199.467693 9976.999658 5809.123409 6529.029685 24253.393129 22649.043653 20030.364008 19471.887673 23513.130739 17769.705562 14324.473104 13584.161377 11369.194812 7959.680867 8992.097352 2371.862168 -6791.212123 24056.160711 22512.901435 23453.338011 20569.549017 21250.800066 17177.429486 16653.544900 14343.966440 13017.105734 7091.932416 11206.816125 2465.379776 -2495.960667 23824.216390 21749.467089 19899.088820 19378.180278 20070.926449 18763.788677 17060.906374 14816.278114 11159.191801 8769.800975 10253.707252 6338.338522 7589.433764 23925.010392 21689.598981 19257.831173 18244.523097 20550.022951 19535.637825 15050.524878 13963.002653 10147.533015 7818.270966 8590.037981 8107.813533 5270.022572 23877.918270 23252.751837 21917.075698 19342.602538 19943.556658 18895.645519 15621.430330 13371.546663 13249.139648 8525.741108 6470.409773 8791.982195 5616.520905 23380.386633 22487.196011 20863.216724 20427.788648 18553.142557 19364.345559 15747.170160 12413.868468 14774.809916 3926.163000 9981.359334 1901.213463 8048.429153 23097.522351 22902.591365 22384.961622 21245.497837 19715.799600 19152.217374 17303.617367 10809.569225 14320.057803 9440.845059 5876.228349 4987.336906 12584.324433 23083.617504 22801.742836 21946.662963 20355.137985 20510.606048 17979.798957 18873.477525 11119.508517 14227.188671 8946.185081 1925.290692 9663.880281 3131.242589 23078.205753 23275.016915 21653.498959 19889.136051 21789.848350 17100.449506 18046.637381 13218.681548 13361.413477 8686.541713 6842.535157 9749.950831 2125.981436 22598.392733 23176.724034 23234.188515 19868.610963 22643.156789 17573.404926 16043.033875 14712.013535 11893.243415 9755.383205 8500.538364 10190.051369 3192.034148 21910.075082 20682.983310 19155.308142 19206.054074 22728.008706 18435.153355 14878.186692 15517.693911 11496.619885 9464.858911 6386.425887 10319.212742 -2788.085125 21846.469979 20698.911038 18683.056429 19858.499235 22337.573953 18984.915936 14667.929866 15650.355891 11954.130687 8717.409924 7014.989863 10491.783480 4079.994974 22078.115922 21492.374510 20228.372556 20363.298291 22186.599171 19339.817170 14990.608990 15191.206643 12517.967779 8023.124265 8458.975715 10072.913436 2428.791748 22065.833019 21906.462899 21351.834974 21536.573383 21698.141935 19650.040343 15811.267245 14076.832799 13143.320482 7389.229758 8380.562566 9428.261792 3642.694566 21690.439691 22532.096760 23383.086559 22394.900147 20816.852665 19747.724747 16789.389297 12599.098173 14013.426374 6593.085644 7820.106730 11421.275012 5284.896603 21000.910076 22028.008444 23559.080820 22712.092086 20448.067223 19593.085404 17600.828741 11773.795223 14575.743194 6195.823914 7879.879219 12007.964612 5240.340883 20263.312543 20989.908949 22832.016718 23479.876756 20942.084876 19489.972557 18043.153977 12061.989139 14132.846745 7146.756601 7531.018787 10040.103493 4841.156181 19716.508566 20068.104649 21589.387354 24009.059861 21367.243505 19619.786992 18115.496371 13065.930859 12849.790790 9422.527633 5870.007796 8411.269987 8667.126992 19388.747027 19750.989901 21830.527693 23635.449560 21329.272827 19850.929015 18014.697201 14110.623425 11508.749355 11756.655881 3255.955769 10137.885848 13029.147888 19148.606905 19599.263704 22365.524413 23206.671126 21280.243346 19989.605045 17837.946849 14784.656370 10711.836848 12943.713686 771.111523 12413.631663 13531.247711 18919.055755 19399.321276 22122.982130 23506.662057 21325.764805 20033.383694 17557.924595 15105.268144 10514.878757 12716.056689 353.842486 12432.975795 13488.178321 18718.783968 19144.139530 21997.022912 23824.164884 21173.717866 20022.334773 17189.973627 15232.672390 10552.778291 11671.960791 1992.374629 9494.069041 13562.000411 18577.918798 19012.765111 22189.152946 23394.561798 20798.671443 19903.348494 16827.573903 15233.417421 10495.505367 10594.852021 3858.006062 5438.236002 13200.558988 18507.048410 18916.585243 21887.551037 22649.241032 20442.609678 19633.205395 16568.916417 15086.506912 10324.526309 9896.350517 5033.690510 2578.227032 12343.899725 18507.991913 18871.541761 21342.899345 22061.170268 20255.601382 19281.013202 16451.230066 14792.041872 10240.675008 9504.120204 5548.841319 1299.768875 11032.771559 18557.339416 18927.324870 21058.556442 21799.566182 20168.748548 18959.314316 16450.836649 14430.428208 10409.440232 9160.990989 5553.369574 990.380482 9577.253742 18615.123425 19041.612208 20871.508966 21675.367416 20113.517900 18735.410244 16516.594736 14128.424698 10813.140537 8752.846746 5575.779574 1136.300400 8684.933003 18655.271258 19166.525710 20748.248307 21597.887769 20091.769257 18619.959838 16597.967119 13976.720261 11298.413593 8368.754906 6184.985069 1549.349569 8747.429981 18667.670846 19300.339041 20719.177137 21576.737515 20092.149831 18604.807349 16670.295788 13986.867233 11705.294342 8175.354077 7206.328133 1803.343246 9493.313295 18648.418454 19448.665548 20806.803609 21598.276978 20106.196377 18674.860625 16733.919678 14109.274305 11961.496439 8256.374775 7985.367339 1836.587967 10182.330678 18594.597214 19608.766955 21023.137672 21683.534350 20159.780842 18818.921885 16808.314837 14284.330965 12094.260807 8549.155406 8189.023010 2141.956119 9910.180757 18503.242427 19770.195276 21375.523632 21859.647338 20262.647433 19020.822588 16912.966738 14472.175738 12167.150581 8902.831514 7986.090491 2789.759390 8560.240153 18372.099653 19911.634594 21831.766625 22128.950819 20427.358734 19278.813621 17065.682383 14666.670535 12244.267935 9217.453356 7685.183830 3452.146141 6863.610955 18201.786577 20012.712381 22347.950887 22480.888476 20650.227140 19586.487787 17278.412073 14881.892748 12358.675475 9474.767847 7456.516007 3943.755643 5489.829957 17996.533902 20056.533268 22869.260711 22875.302464 20920.676138 19931.592952 17545.084021 15131.486327 12530.913597 9706.314204 7336.094461 4274.091919 4586.716318 17764.149646 20036.625291 23358.600539 23295.242558 21230.668904 20304.240832 17862.096569 15417.866676 12752.385539 9947.806892 7328.835346 4527.471136 4067.439175 17514.662708 19958.313096 23782.642938 23690.864531 21529.886533 20658.614591 18185.379569 15725.056231 13003.948971 10187.735514 7376.502224 4737.247495 3809.035805 17259.310311 19830.699391 24122.442864 24043.155551 21823.829407 20996.489919 18496.402831 16009.269626 13252.330940 10440.536023 7478.632790 4921.373362 3694.483185 17009.662368 19678.707906 24380.690169 24301.620545 22008.407706 21215.869264 18726.413801 16247.083668 13433.386490 10613.690854 7549.172443 5072.426577 3661.793149 16776.057893 19512.812950 24534.204930 24460.885282 22135.148225 21388.517837 18846.714417 16361.230950 13552.690521 10758.365292 7591.029706 5137.545286 3641.577076 16569.195233 19350.564511 24590.469872 24399.460265 22076.367023 21324.397994 18833.580523 16362.510339 13484.654279 10737.434846 7571.039388 5161.912238 3600.371396 16397.027916 19224.267986 24540.639682 24319.437797 21916.128510 21243.331317 18614.740320 16211.762216 13366.229914 10631.580700 7424.494465 5075.025406 3524.380172 16267.505478 19071.567657 24303.751523 23672.989128 21642.474974 20870.130069 18329.904858 15908.244031 13019.339960 10439.086464 7292.632523 4894.045992 3400.388800 16186.247896 19076.090908 24101.605979 23539.381922 21181.297206 20522.697608 17812.293218 15590.532016 12663.770582 10006.306254 7016.072613 4769.239716 3178.459575 16143.385916 18921.522904 23535.956367 22096.825616 20937.221754 20039.679993 17363.237114 15081.350038 12293.154707 9847.602992 6722.952138 4460.435401 3046.011667 16130.962734 19088.365928 23361.904155 22342.709372 20256.638270 19506.432559 16859.761780 14821.125835 11747.109992 9311.802452 6609.546242 4321.190545 2717.715806 16104.177293 18755.098007 22466.761257 20422.143899 20252.340683 19164.489729 16353.405672 14494.669203 11723.874944 9152.659348 6369.211208 4121.753540 2681.610761 16077.671813 18827.678037 22453.825126 21353.556345 19458.472565 18825.313817 16234.049871 14064.578224 11420.713634 9032.937468 6193.728165 4321.627188 2295.466623 16016.734500 18306.597404 21645.795270 19958.762092 19766.905864 18175.635372 16318.855897 14462.018905 11076.762448 9238.667305 6445.286891 3865.776040 2684.531197 16007.840807 18140.648850 21523.401261 20551.184925 18903.647421 18687.317179 15742.688916 14310.919106 11608.764004 8623.840312 6613.983178 4418.525927 2195.248571 16043.356909 17314.952323 19852.381937 20886.175845 20679.094726 17844.919599 16419.739271 15066.523797 11734.072326 9349.718398 6512.348788 4579.175772 2410.473693 16044.912488 16065.527733 16964.295069 20428.469464 21726.460038 18257.930904 16875.821606 14028.995297 12421.863824 9418.367353 6098.611739 4909.195554 2377.182101 15879.226227 16298.231500 18078.449641 22141.838794 21876.227628 18894.046474 16077.722252 14916.787012 11421.519296 9691.318460 6600.696607 4341.600114 2186.148157 15607.591212 16557.957664 19680.235447 21144.226444 17989.977421 18179.085541 17570.723290 13821.739335 11424.959432 9502.873204 5316.745909 4695.374778 2083.101868 15505.088055 16721.173665 20618.683286 20872.065907 19288.706392 18532.962075 14996.805642 13881.652051 10482.153215 8701.169244 6147.458040 3796.302509 1809.139559 15565.714279 17214.862526 21246.058323 21359.562586 18196.366011 18598.945105 14865.725140 12400.397894 10278.998231 8412.978492 4743.987197 4155.575993 2007.692928 15538.517494 17427.152792 22307.392531 22436.241416 18677.454694 17642.705744 13221.723431 12546.550524 11015.070922 7658.930994 6015.121287 2618.766186 2539.631612 15297.165555 16307.804451 20681.040735 17939.815290 18689.526225 18164.763998 13870.624728 9140.805450 8484.722780 7105.782369 4768.610154 2654.261524 2110.022768 15124.050361 15591.898723 17386.064651 21023.477420 15666.853192 15699.331509 12344.944593 10508.252692 8880.120413 5853.521903 6198.685397 3835.483751 1334.964856 14918.100763 15153.750580 15012.777012 16854.472403 11987.363297 13738.121698 9873.884953 7931.980281 8193.534823 5349.736662 3495.245009 3900.458243 2304.320761 13874.145299 13012.877464 10149.650956 13666.999435 14359.204124 12915.529318 9773.660085 9784.673705 6599.995326 5700.965345 7610.217372 976.149885 3413.134979 11922.134839 9317.478013 6073.686369 11652.855215 13981.922828 10568.766040 13021.188518 11624.035263 11444.185180 5309.424648 11176.060741 7188.603544 5983.907626 10204.889688 7132.691801 3869.980281 12139.115674 10935.782965 13385.730824 11605.807297 12328.507973 15656.945040 6196.849858 4813.590070 7766.744323 7359.321255 9541.823473 8131.089235 8483.615801 8427.787215 15431.774299 11295.202861 10606.332597 12228.840085 10990.643933 10075.133105 12186.917203 10142.192440 10012.595578 9721.609463 8838.552548 9179.752153 12471.737987 16116.870096 8874.639434 12653.733327 7553.654769 11233.201606 9611.067810 11165.819811 10673.912126 8773.421868
</DataArray>
<DataArray type="Float64" Name="Velocity" NumberOfComponents="3" format="ascii">