<VTKFile type="PolyData">
<PolyData>
<Piece NumberOfPoints="2177" NumberOfVerts="2177" NumberOfLines="0" NumberOfStrips="0" NumberOfPolys="0">
<PointData>
<DataArray type="Float64" Name="Pressure" format="ascii">
 11559.495141 11453.207841 11200.438608 10787.729821 10225.234014 9494.384429 8551.686995 7412.479352 6181.084484 4969.289262 3883.800437 2988.811252 2271.642923 1684.240055 1188.981857 763.385487 392.309426 65.220881 -224.228920 -479.300888 -701.627623 -892.335252 -1052.683226 -1184.350227 -1289.510699 -1370.827820 -1431.480052 -1475.202984 -1505.661995 -1525.020616 -1534.275193 -1534.598832 -1527.375710 -1513.845896 -1494.969364 -1471.426330 -1443.667997 -1411.979500 -1376.540718 -1337.479400 -1294.914372 -1248.988252 -1199.889934 -1147.867770 -1093.234809 -1036.367947 -977.703912 -917.738034 -857.041517 -796.342555 -736.799782 -680.665327 -632.110673 -595.972416 -573.980279 -564.563727 11625.365735 11507.523485 11214.469036 10749.699992 10168.700674 9453.145040 8519.594757 7348.546631 6072.139635 4782.044105 3660.159428 2822.172849 2186.669938 1649.339749 1175.915324 758.846285 391.080004 65.428635 -223.334445 -478.077404 -700.262850 -890.931388 -1051.291632 -1182.973617 -1288.070954 -1369.084812 -1428.961711 -1471.587814 -1502.688525 -1523.652847 -1533.721737 -1534.352089 -1527.237367 -1513.749415 -1494.891496 -1471.357846 -1443.604616 -1411.919085 -1376.482337 -1337.422916 -1294.860202 -1248.937162 -1199.842843 -1147.825494 -1093.197549 -1036.333921 -977.665118 -917.666738 -856.847366 -795.742547 -734.954369 -675.868703 -622.761463 -585.603709 -565.177377 -557.308332 11734.549369 11615.468928 11396.896775 10641.443283 10041.482760 9312.156410 8420.298313 7177.603056 5931.194295 4377.326382 3171.968491 2523.889074 2068.676342 1604.012997 1159.571412 753.189205 389.424650 65.456559 -222.517993 -476.885957 -698.908780 -889.527412 -1049.891447 -1181.573938 -1286.566749 -1367.125615 -1425.507842 -1464.545768 -1496.315381 -1522.062029 -1533.415146 -1534.346230 -1527.301848 -1513.824351 -1494.963099 -1471.424514 -1443.667472 -1411.979348 -1376.540672 -1337.479378 -1294.914338 -1248.988151 -1199.889607 -1147.866708 -1093.231356 -1036.356719 -977.667397 -917.619274 -856.655325 -795.085110 -732.740252 -666.803873 -601.358559 -565.687178 -549.961153 -545.105564 -559.074926 -542.386770 -535.922065 -513.019265 -506.918821 -503.708285 -463.686623 -462.223899 -460.916642 -420.069535 -419.666220 -419.211137 -379.713375 -379.622914 -379.449015 -342.206592 -342.209239 -342.125105 -307.412695 -307.443249 -307.387582 -275.263424 -275.301726 -275.255685 -245.690788 -245.730404 -245.688403 -218.610891 -218.649644 -218.610156 -193.922385 -193.959457 -193.922159 -171.509169 -171.544206 -171.509099 -151.244091 -151.276926 -151.244069 -132.992641 -133.023198 -132.992634 -116.616287 -116.644549 -116.616285 -101.975368 -102.001358 -101.975367 -88.931504 -88.955280 -88.931504 -77.349570 -77.371214 -77.349570 -67.099233 -67.118845 -67.099233 -58.056125 -58.073818 -58.056125 -50.102672 -50.118567 -50.102672 -43.128643 -43.142867 -43.128643 -37.031458 -37.044140 -37.031458 -31.716299 -31.727564 -31.716299 -27.096053 -27.106024 -27.096053 -23.091137 -23.099933 -23.091137 -19.629226 -19.636960 -19.629226 -16.644911 -16.651689 -16.644911 -14.079302 -14.085224 -14.079302 -11.879611 -11.884769 -11.879611 -9.998713 -10.003192 -9.998713 -8.394701 -8.398578 -8.394701 -7.030450 -7.033796 -7.030450 -5.873192 -5.876071 -5.873192 -4.894105 -4.896576 -4.894105 -4.067927 -4.070040 -4.067927 -3.372588 -3.374390 -3.372588 -2.788872 -2.790405 -2.788872 -2.300102 -2.301402 -2.300102 -1.891850 -1.892949 -1.891850 -1.551673 -1.552598 -1.551673 -1.268872 -1.269649 -1.268872 -1.034279 -1.034931 -1.034279 -0.840064 -0.840608 -0.840064 -0.679561 -0.680013 -0.679561 -0.547116 -0.547491 -0.547116 -0.437961 -0.438271 -0.437961 -0.348096 -0.348352 -0.348096 -0.274194 -0.274407 -0.274194 -0.213526 -0.213703 -0.213526 -0.163897 -0.164047 -0.163897 -0.123601 -0.123731 -0.123601 -0.091398 -0.091514 -0.091398 -0.066496 -0.066608 -0.066496 -0.048570 -0.048683 -0.048570 -0.037780 -0.037905 -0.037780 -0.034830 -0.034976 -0.034830 -0.041033 -0.041211 -0.041033 -0.058416 -0.058640 -0.058416 -0.089841 -0.090127 -0.089841 -0.139168 -0.139535 -0.139168 -0.211443 -0.211914 -0.211443 -0.313127 -0.313729 -0.313127 -0.452367 -0.453132 -0.452367 -0.639302 -0.640268 -0.639302 -0.886424 -0.887636 -0.886424 -1.208981 -1.210490 -1.208981 -1.625424 -1.627291 -1.625424 -2.157909 -2.160203 -2.157909 -2.832843 -2.835642 -2.832843 -3.681468 -3.684860 -3.681468 -4.740488 -4.744573 -4.740488 -6.052726 -6.057615 -6.052726 -7.667799 -7.673612 -7.667799 -9.642796 -9.649667 -9.642796 -12.042957 -12.051029 -12.042957 -14.942309 -14.951735 -14.942309 -18.424261 -18.435202 -18.424261 -22.582113 -22.594737 -22.582113 -27.519457 -27.533937 -27.519457 -33.350439 -33.366951 -33.350439 -40.199842 -40.218558 -40.199842 -48.202950 -48.224038 -48.202950 -57.505168 -57.528783 -57.505168 -68.261335 -68.287618 -68.261335 -80.634723 -80.663794 -80.634722 -94.795660 -94.827608 -94.795656 -110.919756 -110.954635 -110.919743 -129.185717 -129.223533 -129.185677 -149.772721 -149.813406 -149.772590 -172.857360 -172.900722 -172.856937 -198.610226 -198.655780 -198.608852 -227.192296 -227.238745 -227.187832 -258.751714 -258.795278 -258.737219 -293.422817 -293.451778 -293.375758 -331.333351 -331.310107 -331.180584 -372.640145 -372.440281 -372.144201 -417.656088 -416.855086 -416.047390 -467.498585 -464.413534 -462.254884 -523.082301 -511.585830 -506.556463 -552.552994 -533.877311 -525.672332 17637.949245 16903.060713 17164.416532 21439.205192 19755.007441 22114.491214 22097.183965 19163.403293 22190.896486 22953.846051 17684.290718 17041.526841 18103.403385 15416.579317 17049.586578 16463.699249 14961.913432 15300.890110 13728.366784 13261.047969 11075.154366 7213.159647 8080.627195 6900.793946 3931.104033 6021.350976 7171.949925 3662.681585 1463.456298 572.123255 -35.093871 -509.826840 -875.655365 -1141.598558 -1321.963717 -1434.241428 -1495.092743 -1518.178477 -1513.742340 -1489.116557 -1449.479635 -1398.530063 -1338.981657 -1272.897614 -1201.908190 -1127.350445 -1050.354841 -971.889702 -892.754894 -813.461856 -733.834624 -649.966904 -575.312107 -543.279241 -529.481013 -524.448132 17727.833402 17670.583174 17475.708384 17220.502291 16124.200982 17251.666464 18448.498485 18113.707440 18782.162656 18696.996247 17078.301018 16162.135658 16012.390025 15242.484886 15231.667627 14810.449810 13952.137426 13168.946789 12197.183837 11213.000039 9608.535951 7941.686801 6875.168221 5852.945101 4673.246275 3954.699086 3342.989938 2337.810596 1322.111580 556.463954 -34.132239 -507.699739 -873.820096 -1140.138492 -1320.849082 -1433.417550 -1494.494033 -1517.743800 -1513.423478 -1488.879189 -1449.300625 -1398.394146 -1338.878816 -1272.821431 -1201.855185 -1127.321029 -1050.358417 -971.962739 -893.021351 -814.341961 -736.717328 -661.486169 -596.076814 -557.751147 -539.021846 -531.941795 17704.018760 17759.030397 18194.522218 18996.450390 19233.681979 19024.637254 18767.510276 18261.512134 18110.442098 17793.719028 17031.159619 16232.214824 15571.596269 14955.918833 14505.820489 14003.735385 13312.127072 12501.972608 11592.512327 10549.134399 9262.944978 7902.956477 6730.007417 5656.572265 4596.174931 3668.563706 2843.464410 2015.417787 1229.402590 543.008551 -36.114246 -508.975570 -875.241292 -1141.459786 -1321.925208 -1434.232845 -1495.091566 -1518.178637 -1513.742549 -1489.116672 -1449.479715 -1398.530210 -1338.982095 -1272.899027 -1201.912784 -1127.365395 -1050.403498 -972.048071 -893.270211 -815.141581 -739.244904 -668.800595 -609.873146 -569.419221 -546.829602 -537.672575 11803.528402 11815.561981 11871.738974 10505.835239 10101.345165 9526.976696 8556.545474 7093.470650 5841.686143 3852.892696 2523.528942 2225.755557 2027.584592 1590.108823 1154.437673 751.105355 388.512946 65.056523 -222.678605 -476.934641 -698.906217 -889.500642 -1049.848948 -1181.508549 -1286.443457 -1366.830051 -1424.516122 -1461.062186 11947.602164 12129.915960 12603.687268 11442.385742 12016.606359 12195.454393 10627.868840 11612.086918 11488.730447 12878.025486 11240.408304 11413.891920 12618.625189 12550.996005 12147.852960 10198.990673 11967.398253 10598.571743 9693.620355 9762.901871 11624.487678 12180.779390 12374.999446 12615.607036 12251.248000 11228.550274 2343.424194 5228.802380 12054.545417 12021.626354 12722.830106 12957.992412 9581.184200 10260.170425 13595.661951 8355.478752 11759.521543 6704.544013 16055.356579 12499.659689 9889.702601 11963.604275 10232.345986 13097.416918 11956.595375 5199.474964 12992.857276 9794.423754 10319.016866 9412.962529 9465.065026 8386.715560 10347.476028 5654.715350 8441.657018 8128.948792 12219.559348 12466.854821 13147.299520 9826.632312 9412.334735 10418.438539 8674.580559 5812.969155 12923.426230 12963.859386 12247.975478 10233.233225 9796.587537 9242.687200 13864.185024 5573.891285 9516.918236 3913.892879 10165.420437 13419.104429 9448.221476 12732.323565 13194.098648 7518.526750 7481.767186 9398.302967 9302.656433 4249.291472 12535.906009 12762.524075 13344.587293 9897.769130 9861.845278 11642.325954 12781.317217 11254.218241 13012.556287 10151.271365 10207.797585 3323.614507 6522.582192 7424.112275 11277.742613 11778.606962 7774.300837 13648.421467 10501.094667 10387.471958 6265.382804 10640.299144 5625.319239 4251.029459 2969.299443 4200.224408 5974.895461 1940.072265 12769.669361 12311.411217 11889.727369 13546.523284 11022.658615 11168.244106 11668.392489 11014.013687 12434.665559 7626.894948 3846.481372 9992.756132 8045.798553 7486.542629 8113.375348 7656.071103 5552.088031 2815.562857 5211.206086 3646.311425 8083.826299 3163.546578 9916.996720 6845.055513 4800.432650 7076.217661 3359.007144 3551.011458 12704.712875 11586.402752 10571.861035 12333.512130 11683.917413 7057.575641 14081.208914 9106.412879 14504.179062 9021.622533 10954.994370 15675.908500 10500.706829 6690.999211 10902.651601 7810.667366 8616.629075 3700.029334 10837.660660 9035.757704 10348.676799 3725.192631 1676.506288 5740.164890 3574.492390 2068.991988 4136.758361 3500.671005 12500.955241 11483.479688 10763.751704 10779.470586 13238.960306 11155.756198 11351.133956 7428.693956 11655.934918 4867.938857 4616.374155 6531.420455 9456.800539 8630.589265 10299.291103 10456.929824 4088.414921 10982.357183 9694.702991 6526.108073 5817.813513 10737.855666 4535.643318 7916.075658 8592.568299 6628.246475 2642.578104 3036.228985 12355.051144 11661.074072 10992.041174 12851.567128 11432.807902 12582.866004 12154.419901 11174.396724 13768.698739 9451.326273 10359.204626 10428.497448 10001.838477 7404.725311 4303.035367 11418.298243 10922.032922 8729.693992 3120.718993 4548.653879 6585.107546 3782.352724 4746.425745 2518.128278 6991.834857 4294.347342 4074.291036 2969.997162 12237.649015 12153.367888 12070.057027 11682.293991 14032.474373 12550.147905 11300.100128 11271.489046 8405.940533 7717.942753 9294.050680 2810.943841 7346.595030 8684.713468 4987.868490 5165.894612 5443.941061 8403.486832 6401.889699 9665.965832 5740.897071 4203.434717 4120.872308 6747.868905 2966.397290 3034.346203 1926.496447 4434.792272 12227.941489 13064.539000 14052.471814 12787.259664 11496.240247 10338.402416 9941.407095 12404.462048 4481.652151 12234.040723 6063.252056 7765.239586 7001.639186 2936.236910 8739.788869 9153.627072 5403.705148 7670.550365 7831.603772 7579.036587 6906.012570 3608.081068 8608.966448 7891.476433 4981.282626 5215.908660 6935.032636 3669.858956 12439.424094 13596.726926 14570.761283 12773.370262 11507.294459 11987.617020 11020.743524 10411.654723 8789.511449 8068.130591 5119.006390 6092.325919 10506.493371 10270.560695 8810.356358 7977.316814 9505.681923 2767.512164 4061.990926 4790.227094 6037.293424 9349.927252 3158.535363 6514.771460 3882.439394 5618.659770 2521.891175 2709.303710 12577.815354 12522.645960 12059.316331 13081.879481 13222.528343 8896.301257 8257.827887 9642.025223 6256.367840 9082.371016 6070.056409 10022.484906 10309.346418 3256.217166 7872.447677 3476.191505 10170.168563 7190.646944 5608.729410 9828.381116 9341.339330 6013.327826 8353.095542 5467.582568 6082.217669 3758.985575 4943.481682 4688.794969 12639.111736 11902.295782 11824.876544 13577.742554 10798.028668 10503.800377 11601.454330 8259.689843 5661.241638 12497.006483 7894.942457 3846.148876 3266.017223 4157.203415 4358.806048 5462.085150 7482.877941 4481.477712 4614.570908 4129.008803 4440.675744 4705.349575 4426.333174 6409.585140 3571.720592 4455.511131 7374.168233 4099.072916 12897.890209 12867.900164 13334.313372 12768.412233 12715.475484 13558.939993 13505.084961 10862.278461 11499.771020 6410.085742 8887.334203 7625.752745 3956.384058 4346.253615 5224.175191 3678.718225 4617.664974 4990.076611 6839.160246 3240.906313 4947.649186 2534.651289 2938.995843 4041.705080 4977.813280 3564.456183 3306.378798 2667.912864 13214.408364 13738.808850 14138.587401 12939.927571 13522.818972 11432.212114 13014.339743 9246.469833 9036.691848 7994.463564 7273.211085 3730.172715 4947.059445 13284.653203 13182.869251 13211.798786 13009.572320 12345.796871 11211.466773 10828.211648 9116.162239 10720.400565 6048.899855 3097.807166 3134.115676 3319.489108 13067.037979 12238.578543 11538.883792 13361.124432 10673.636993 10803.882839 5822.186747 12003.742123 9564.929003 3557.381792 5509.153432 8086.175245 4947.497853 12924.094406 12190.709786 11919.899068 14003.738138 10845.413259 10663.953604 7902.789062 10752.698867 3236.006883 5944.731348 3701.059419 4067.705587 3945.532451 12968.783263 11735.434202 10564.581156 13315.728401 11502.368879 11675.021536 11039.702242 4953.526875 6013.000020 7983.909066 10295.287513 7940.636862 2740.737428 13020.605842 11784.705697 10354.738134 14427.088461 12316.131890 13875.110371 8676.367194 11460.091334 3360.550042 2843.374326 7691.592293 4802.193956 4706.026048 13026.510703 13082.262419 12625.237228 13696.874437 11259.625976 12490.312990 7576.856290 7770.734110 7468.751806 6897.218065 9325.561807 4125.863715 5578.541999 13087.199283 13192.469665 13221.893080 14485.438322 11412.771468 4925.037311 4773.528909 6789.013693 3903.942561 10437.443854 5232.794552 5360.175465 2432.171571 13209.716366 12839.922442 12252.643554 10632.924871 11691.599793 7626.535344 9725.916880 8723.174187 7392.882946 8342.932052 2090.503832 2551.690881 2145.480177 13436.173880 13739.702720 13311.589029 13696.810330 10090.015666 10970.303085 8603.352179 7157.169507 6058.842661 4800.512962 4222.967234 4003.022089 9708.459496 13678.386991 14863.074216 15437.783847 12771.715541 10676.701871 11083.656831 8804.695782 5216.095186 6655.672455 9735.649753 4401.740958 3980.414195 15549.075765 13659.068796 14750.018452 15527.984200 12629.259126 11851.180024 11801.608145 11764.492598 9269.626092 4855.158347 7582.892954 7585.413868 4841.357453 5434.078373 13448.995107 14307.654153 15251.778067 13952.657927 11975.011331 10504.731183 9852.860272 11881.478117 4726.812780 7797.192659 8393.532801 4257.687734 5653.461929 13181.170526 13720.593347 14550.993967 11484.721454 9558.652907 9383.933696 9965.468891 9058.560604 3666.754073 10016.360734 4210.914090 6088.615063 4527.456533 13172.827735 13277.505403 13674.263439 13363.704606 12713.298784 10598.785209 10688.075836 13804.418348 6736.324972 10365.307816 2753.744661 5961.401352 4925.032484 13565.902319 13332.194666 13015.628550 10861.925803 10902.463556 12064.620984 12710.793141 11990.632942 6749.019283 10891.401824 3593.453348 6970.495041 6416.034864 13965.515515 13560.744318 12777.761692 7195.071104 12978.420540 12575.653012 11775.962855 10629.299052 6029.957682 6557.994378 2833.864488 5294.351418 5966.232331 14092.374202 13963.719142 13378.096319 13645.626116 12338.029649 10880.480420 9410.914357 8811.687542 8281.260449 10656.909161 5085.494457 4052.377035 13733.965486 14043.925703 14340.444442 14135.227349 12974.782313 11856.814755 10763.819294 9051.476838 9367.307935 9064.776708 8391.610611 8282.536596 10126.985855 3475.715227 13817.321809 13798.566677 12985.438769 13916.437056 13002.448585 10514.970247 11312.195015 7212.585350 7908.548020 10120.840104 12064.811629 5412.105334 -22737.967430 13566.672994 13013.656422 12299.979555 13876.328011 11891.103131 11916.447107 10698.024879 6914.408623 11305.795107 6220.392518 4705.510502 5197.300743 7185.730949 13443.290049 13135.448343 13745.459055 13438.880980 11902.656325 12247.446590 6581.287422 9720.214332 8275.265411 6081.091911 7625.222485 7948.888271 5170.311138 13497.347583 13435.295178 14303.696576 12491.543662 13976.458514 10854.479843 9202.883069 7509.440258 6622.708861 5091.099649 6156.041620 6165.960965 9214.670960 13633.279894 12691.714688 11820.633264 11182.496424 14684.420366 12026.763532 12145.569052 8654.202600 6238.119245 5038.074724 6579.905309 5659.975637 3497.772323 13664.709667 12694.172991 11482.001940 13359.530627 13718.867482 12707.499596 7981.236626 11942.658498 7000.086422 7832.399640 9792.902521 8425.467973 4249.709889 13476.863957 13348.979107 14009.123412 13082.973774 13502.849416 6475.120588 10540.692336 8268.823916 11865.834910 9920.531854 8387.465944 10225.830325 7654.600079 13253.531032 13334.856333 14416.473158 14049.941292 13589.890014 11589.620228 5518.950316 14791.616359 7710.339383 9900.444138 7966.821955 7857.969820 9111.673160 13318.148432 12988.257602 13380.643272 13710.505673 14242.390580 12725.931463 4989.200956 12607.558016 5648.304404 6799.112171 12285.071802 9142.785548 4950.615488 13529.152600 12970.197792 12994.019723 15203.692765 12156.894753 12835.282479 13474.303201 12108.491673 7838.172792 10212.659401 7568.370368 6161.765780 3438.959643 13704.949968 13164.953147 12763.834065 12739.476543 12445.079312 13173.910131 16839.098779 14188.607022 6146.538472 8955.270407 5971.256711 7734.251067 1723.030548 13962.569102 14720.088580 15164.813612 14098.451642 14141.088687 5746.483327 9588.076750 14639.700214 15017.852736 12968.600426 9236.026504 7715.525085 7799.101104 14010.265290 15197.276360 15853.535231 14595.965039 12966.423378 6525.554304 12060.223662 15074.986913 8510.616065 7597.851484 8555.682100 9598.957769 9279.975364 13734.378435 14340.798113 14381.642302 14991.364065 13902.987648 13718.384599 9596.708262 12559.502251 11884.348472 7963.097692 6741.145773 11654.688220 8160.839031 13446.535488 13526.986698 14330.656975 14244.468985 12911.790291 15267.113727 13814.818374 10442.565716 11728.165215 12080.259897 9711.772440 6552.486850 5787.870265 13307.287834 13227.327335 13953.986773 14662.644986 14935.828960 13046.912024 14968.041945 14056.385033 12294.326654 12238.786405 17055.169201 4234.358125 9621.325007 13441.148774 13617.204212 14249.168198 14459.763060 15616.237753 16461.464448 13885.906575 14352.166798 9754.296554 10429.262304 8331.387266 9656.931376 9784.307588 13934.720528 15488.088353 16216.026632 16501.146193 16278.105717 16590.406034 14200.525515 15392.305997 12526.835959 10021.692644 6977.034511 10135.908125 4855.222842 14416.537725 15518.574310 14998.507405 15014.500668 15552.708317 13598.935853 17430.680943 9596.281133 14279.064549 8444.528535 7782.067868 12088.129181 5947.652636 14589.486023 14275.489579 12439.669065 16586.027390 13975.328098 14283.146459 11398.263123 7677.635087 9390.856841 14338.547724 9447.268052 5252.546096 8845.610787 14642.673775 14283.700398 13301.691684 15579.601664 14341.356474 14859.237974 14545.133152 10676.726499 11700.059560 9229.490115 6324.769799 4434.500086 7869.948968 14744.720725 14693.962180 14827.935052 16871.475304 20458.221694 15433.673513 15448.937899 12322.374037 9192.527729 10192.927536 11840.160819 12149.610352 8304.608155 14810.765797 14558.859842 14568.763644 16972.773159 18540.559625 16668.108872 13687.543658 12070.900780 16192.626461 11938.950217 10384.790044 10244.045227 12301.068545 14912.546577 14299.822623 14390.973615 18349.279648 16431.383075 19442.929201 16454.879387 16306.728701 16224.366121 8526.505578 10841.866823 12279.492771 10727.121567 15138.140289 14590.246740 14058.685188 18682.068069 14537.641875 13680.028922 15664.294838 11219.531044 10846.519147 12550.667901 9370.495308 4942.902663 4025.965879 15419.169357 15739.723863 16152.095120 19257.155485 17697.999826 16589.621554 12605.494467 17500.762084 13467.120488 12143.989791 6417.050384 787.455332 3681.751534 15782.447116 15967.256842 16039.042848 17095.051948 18128.373551 18873.747817 13195.181029 16293.583820 15194.486054 12494.036142 7527.597227 12310.247805 -3776.083961 16189.070375 15998.569120 15036.987525 16659.413498 17236.776759 13874.778826 12374.985134 15196.539922 14136.551517 12229.982545 7696.649810 13317.386841 5908.844945 16236.570750 16406.184206 15544.682518 19010.928609 17094.961118 12090.854829 16429.331685 15950.797607 13495.954896 12347.110390 8680.219499 15557.472157 7695.480029 15946.487418 17401.518278 18473.255232 17064.805470 17907.944637 16866.501733 10025.359502 15446.843353 11478.325885 14540.579332 9848.184507 6323.524879 7250.238493 15822.054961 17294.590954 19788.815859 18386.640387 18642.733019 17703.422833 18430.084288 17191.600449 15894.714586 14417.513354 8808.639253 13294.231156 14146.475818 16136.862105 16750.766730 18750.727556 20442.064370 13949.178031 18245.919496 16170.255744 17087.325124 10663.749359 8052.364428 16466.616105 11250.539200 15439.131478 16681.102430 15647.806201 15433.492863 20475.592417 19096.732041 16260.442443 14464.678310 14961.270486 17653.018453 13197.429117 11371.266633 9910.491562 10535.100403 17398.813134 15506.462356 13944.149569 20714.718462 20220.120592 19355.140236 15917.524606 17915.204729 18020.371364 13127.600528 12620.414763 12604.538419 9467.517657 18278.848127 17539.855343 16932.658394 22199.460097 18069.741861 19001.288230 11554.970583 21443.353171 14125.845835 8134.365718 14853.437244 10283.237787 10854.518254 18955.716443 18594.109000 17896.165386 23152.591925 19039.845268 20871.282991 14399.147460 17078.194614 17543.229348 14016.743720 15060.084910 7648.084881 8170.441093 19251.584987 18690.556034 17798.469289 21585.030143 19820.536536 20668.533672 18025.590301 15894.524259 14051.786859 14500.919026 12310.647725 17847.008459 -4314.884566 19227.158475 18946.348932 18414.315501 20495.057863 19142.915760 19008.971086 13581.193344 18257.521915 14059.484362 11769.237724 16009.071206 11069.056648 6505.345235 19221.176780 19389.166580 18938.601439 20216.039067 22526.362030 17105.506729 21580.632739 16029.488713 15112.066981 12180.922082 7108.498691 15551.357108 12027.282944 19451.576814 20595.967008 22039.626387 18768.719877 18031.812035 18114.023430 11236.165024 12160.870281 7118.482096 10141.476749 10747.002685 13188.630921 8574.726820 19695.783727 21149.405953 22621.212205 20742.991736 21331.404706 20076.780728 16597.086303 11494.049463 16640.052459 14405.921256 13121.656081 12824.064771 11232.935063 19962.569216 21362.336472 22261.288305 19896.385731 19799.009071 16174.804704 14471.332368 18572.286815 15906.164581 14961.894278 9127.497923 12297.003235 2831.171447 20292.429676 21117.244167 21198.426855 18997.702950 20480.352756 18111.336206 18807.817054 16005.390823 15557.795583 14956.730092 7920.597684 11245.439422 6659.282945 20464.740788 20124.511356 18780.221744 20623.133880 21836.266872 19074.080886 16428.340018 17026.616093 18793.176064 9789.075080 11049.891872 5224.004321 13022.580744 20325.663048 19276.070541 17756.978577 21124.969365 18189.249801 14002.566377 16070.260814 17472.353109 9935.543602 17519.948580 12591.587689 13409.160317 12486.102830 20090.234963 18986.520980 18025.255707 21148.871957 20574.282740 17719.045750 18204.707314 19588.859598 15596.872537 19372.205279 14763.668581 12068.295955 13485.171134 20111.069968 20301.362310 21135.394146 19086.683890 17189.184266 18646.984843 13396.726035 17342.029461 17492.038338 17164.787802 16131.416850 11589.435972 8924.484404 20303.082591 20232.455439 19758.481886 20117.729020 16546.284087 19845.379843 15590.243399 16865.715247 12938.807046 14918.104668 14420.676419 12529.317502 11235.022052 20712.910716 20398.479607 19689.998355 19883.650844 17565.469923 17070.238157 22800.599657 19405.325442 16033.738747 14519.126840 14830.001286 10783.610140 -16335.324547 21056.252719 23004.165274 23935.686133 23500.636585 18451.776906 17530.937411 21133.707458 17445.356900 16280.915413 20265.246528 10977.889385 12149.341468 14338.622271 20629.393963 19966.128261 17880.142019 20315.957293 18537.598695 17737.502310 15181.472477 16796.132993 16892.564803 19149.645658 10374.559086 15881.310471 11360.564451 20133.827104 18479.480120 16852.708321 17600.533666 18144.976527 16890.445982 15085.520933 18959.072749 18422.637143 19751.118911 8355.718446 9810.125302 5882.835468 20281.067315 21924.729161 24473.342040 18636.624467 18532.813114 18896.526748 17584.571177 20315.662021 19934.323362 15965.101315 18148.883466 15474.029578 11542.833302 20407.903743 23535.886809 26183.972884 21880.637122 17281.234290 18363.092173 21018.998298 16539.569798 14225.035274 9653.274074 14348.664435 16617.140470 7871.420715 19527.028850 21312.663564 21523.531708 20279.532446 20140.260531 23215.547754 8560.676498 17306.804834 11197.225746 11681.196038 15163.059237 16488.277924 10478.780076 18221.953614 19336.217695 22246.581720 20332.906404 18980.421052 17951.440095 19960.937626 14556.510690 14977.660477 17094.414659 15574.049354 13654.812944 16298.534297 17606.468384 18109.541987 20819.716980 15458.145467 19297.107780 22371.484501 17816.068415 25302.971396 13078.695859 15857.663389 10941.412155 6947.961152 4203.433356 17773.658933 15874.920692 13831.223648 18785.789990 16952.387481 17158.329291 21290.822508 14597.595998 21864.441423 11348.667636 11580.416329 9914.805353 -2800.103710 18065.369071 17433.969855 17105.040248 18960.765443 20062.430423 18872.668598 22272.961838 17015.511697 20329.999740 18867.816643 14721.425947 7690.548377 18027.180972 17817.584287 21455.008373 27804.757298 14483.900228 20756.988615 19291.389215 19049.064110 12742.589621 19245.001177 17948.946556 16967.020110 11009.790148 7215.112985 16956.728823 17376.831078 21233.613897 18538.588944 25647.882831 19167.466742 23438.049713 18430.719959 19711.781397 10577.617397 22739.329373 21890.203683 9282.048373 16762.206840 14407.581520 14821.502985 16886.367473 19918.247090 22311.366100 16858.292547 20687.189256 19756.683623 21913.750374 24770.032825 18951.798413 12197.125855 17342.725388 15476.761497 14173.877833 21568.027586 19424.048164 20993.269177 22595.547077 19079.314524 20924.068694 23627.550212 21184.231149 13878.404962 8946.462256 17423.368879 14685.891575 12208.669225 16219.302741 22674.634765 18075.843510 21441.303392 18729.961288 18345.494636 17545.901245 18729.995098 18884.280423 12337.446884 16999.421039 12833.438779 9580.400306 19660.594439 23682.738780 17847.203372 21823.522131 19369.214025 21579.544791 19616.613141 18159.248567 22300.925220 19084.822553 17244.696222 14164.856581 13257.177885 24491.043895 17692.385824 20237.875886 20419.473622 19723.565339 15073.081334 26088.463395 18074.915306 19689.217039 19294.254000 17637.949245 16903.060713 17164.416532 16450.504525 21679.134764 21709.137270 20905.552583 20957.881515 20434.356774 17518.769059 17769.424819 20518.219670 18603.528254
</DataArray>
<DataArray type="Float64" Name="Velocity" NumberOfComponents="3" format="ascii">