<VTKFile type="PolyData">
<PolyData>
<Piece NumberOfPoints="2177" NumberOfVerts="2177" NumberOfLines="0" NumberOfStrips="0" NumberOfPolys="0">
<PointData>
<DataArray type="Float64" Name="Pressure" format="ascii">
 19325.293557 18531.000846 17266.431276 15910.577674 14570.144457 13136.429140 11710.576790 10471.165279 9369.303003 8167.876148 6762.988131 5381.274158 4106.298128 2696.489982 1208.537023 402.118938 340.829168 338.497371 -197.275749 -959.139234 -1347.803190 -1484.699049 -1877.092902 -2678.856173 -3356.554472 -3564.007521 -3445.680144 -3196.399959 -2898.788217 -2582.742521 -2266.522926 -1959.147871 -1664.981550 -1388.339661 -1134.089216 -906.678370 -709.134786 -542.563357 -406.161211 -297.584923 -213.476921 -149.997368 -103.267068 -69.681509 -46.095376 -29.899128 -19.017715 -11.860933 -7.249636 -4.335458 -2.525878 -1.421969 -0.769639 -0.410456 -0.234302 -0.166784 18473.234350 17601.007980 16311.176717 15068.618131 13802.201134 12125.729787 10440.148053 9074.389539 7948.797780 6719.288659 5207.077408 4063.333861 3398.997138 2174.413432 -243.311739 -774.102710 73.514182 868.408651 -41.957908 -1519.344576 -1627.177903 -1285.699352 -1613.063345 -3218.845043 -3992.870563 -3918.102463 -3630.867297 -3303.237224 -2957.975726 -2606.511138 -2274.771294 -1961.929795 -1666.075942 -1388.970187 -1134.624928 -907.209618 -709.663925 -543.069470 -406.622799 -297.987349 -213.813730 -150.269062 -103.479017 -69.841836 -46.213224 -29.983429 -19.076441 -11.900682 -7.275336 -4.349717 -2.526862 -1.402713 -0.727239 -0.375875 -0.216116 -0.157618 17377.411918 16507.532693 15609.920377 14327.977179 13955.505090 11222.122231 9723.883850 8273.712516 6787.566857 5762.004406 3011.516155 2290.457282 3684.667405 2705.024423 -4404.292261 -3192.930847 -156.886017 2590.338493 309.795475 -3130.563579 -2265.935393 -691.086987 -655.420194 -4211.399934 -5305.817818 -4411.533819 -3866.477824 -3465.991809 -3069.616066 -2638.283412 -2283.244462 -1964.248609 -1666.537184 -1388.814656 -1134.234331 -906.722737 -709.148366 -542.567520 -406.162491 -297.585318 -213.477044 -149.997406 -103.267079 -69.681511 -46.095370 -29.899097 -19.017600 -11.860501 -7.248025 -4.329460 -2.503996 -1.334482 -0.599847 -0.300026 -0.184434 -0.142222 -0.306914 -0.189637 -0.139659 -0.159634 -0.123037 -0.099935 -0.074643 -0.066697 -0.059166 -0.036813 -0.034863 -0.032622 -0.018267 -0.017819 -0.017146 -0.009020 -0.008933 -0.008721 -0.004403 -0.004396 -0.004323 -0.002117 -0.002123 -0.002096 -0.001001 -0.001007 -0.000996 -0.000466 -0.000469 -0.000464 -0.000213 -0.000214 -0.000212 -0.000095 -0.000096 -0.000095 -0.000042 -0.000042 -0.000042 -0.000018 -0.000018 -0.000018 -0.000008 -0.000008 -0.000008 -0.000003 -0.000003 -0.000003 -0.000001 -0.000001 -0.000001 -0.000001 -0.000001 -0.000001 -0.000000 -0.000000 -0.000000 -0.000000 -0.000000 -0.000000 -0.000000 -0.000000 -0.000000 -0.000000 -0.000000 -0.000000 -0.000000 -0.000000 -0.000000 -0.000000 -0.000000 -0.000000 -0.000000 -0.000000 -0.000000 -0.000000 -0.000000 -0.000000 -0.000000 -0.000000 -0.000000 -0.000000 -0.000000 -0.000000 -0.000000 -0.000000 -0.000000 -0.000000 -0.000000 -0.000000 -0.000000 -0.000000 -0.000000 -0.000000 -0.000000 -0.000000 -0.000000 -0.000000 -0.000000 -0.000000 -0.000000 -0.000000 -0.000000 -0.000000 -0.000000 -0.000000 -0.000000 -0.000000 -0.000000 -0.000000 -0.000000 -0.000000 -0.000000 -0.000000 -0.000000 -0.000000 -0.000000 -0.000000 -0.000000 -0.000000 -0.000000 -0.000000 -0.000000 -0.000000 -0.000000 -0.000000 -0.000000 -0.000000 -0.000000 -0.000000 -0.000000 -0.000000 -0.000000 -0.000000 -0.000000 -0.000000 -0.000000 -0.000000 -0.000000 -0.000000 -0.000000 -0.000000 -0.000000 -0.000000 -0.000000 -0.000000 -0.000000 -0.000000 -0.000000 -0.000000 -0.000000 -0.000000 -0.000000 -0.000000 -0.000000 -0.000000 -0.000000 -0.000000 -0.000000 -0.000000 -0.000000 -0.000000 -0.000000 -0.000000 -0.000000 -0.000000 -0.000000 -0.000000 -0.000000 -0.000000 -0.000000 -0.000000 -0.000000 -0.000000 -0.000000 -0.000000 -0.000000 -0.000000 -0.000000 -0.000000 -0.000000 -0.000000 -0.000000 -0.000000 -0.000000 -0.000000 -0.000000 -0.000000 -0.000000 -0.000000 -0.000000 -0.000000 -0.000000 -0.000000 -0.000000 -0.000000 -0.000000 -0.000000 -0.000000 -0.000000 -0.000000 -0.000000 -0.000000 -0.000000 -0.000000 -0.000000 -0.000000 -0.000000 -0.000000 -0.000000 -0.000000 -0.000000 -0.000000 -0.000000 -0.000000 -0.000000 -0.000000 -0.000000 -0.000000 -0.000000 -0.000000 -0.000000 -0.000000 -0.000000 -0.000000 -0.000000 -0.000000 -0.000000 -0.000000 -0.000000 -0.000000 -0.000000 -0.000000 -0.000000 -0.000000 -0.000000 -0.000000 -0.000000 -0.000000 -0.000000 -0.000000 -0.000000 -0.000000 -0.000000 -0.000000 -0.000000 -0.000000 -0.000000 -0.000000 -0.000000 -0.000000 -0.000000 -0.000000 -0.000000 -0.000000 -0.000000 -0.000000 -0.000000 -0.000000 -0.000000 -0.000000 -0.000000 -0.000000 -0.000000 -0.000000 -0.000000 -0.000000 -0.000000 -0.000000 -0.000000 -0.000000 -0.000000 -0.000000 -0.000000 -0.000000 -0.000000 -0.000000 -0.000000 -0.000000 -0.000000 -0.000000 -0.000000 -0.000000 -0.000000 -0.000000 -0.000000 -0.000000 -0.000000 -0.000001 -0.000001 -0.000001 -0.000003 -0.000002 -0.000002 -0.000007 -0.000005 -0.000004 -0.000020 -0.000011 -0.000007 -0.000033 -0.000015 -0.000009 10361.290197 10490.676761 8490.623064 530.215379 4546.324947 2097.282123 1899.372855 5097.274702 -1423.490529 3577.302789 3514.698158 -411.196627 2259.421816 2509.944543 -203.129240 -1112.913299 -1341.407019 -1296.981594 -1154.334715 -988.067797 -827.156834 -681.211473 -552.392189 -440.487616 -344.780773 -264.471049 -198.594592 -145.904541 -104.863400 -73.739997 -50.752504 -34.204372 -22.583213 -14.614190 -9.273277 -5.771851 -3.524823 -2.112410 -1.242448 -0.717207 -0.406309 -0.225878 -0.123209 -0.065932 -0.034608 -0.017817 -0.008994 -0.004452 -0.002160 -0.001025 -0.000471 -0.000193 -0.000061 -0.000023 -0.000012 -0.000008 10342.863482 10722.669100 11933.549308 6210.974578 5735.396157 4093.025928 5210.128526 9614.934106 3692.736915 3718.201637 3610.282995 -23.595112 -471.276042 -92.744202 -750.473979 -1231.508265 -1365.552978 -1300.821086 -1154.649085 -988.115762 -827.329822 -681.456415 -552.655265 -440.748355 -345.032214 -264.707947 -198.811045 -146.095245 -105.025083 -73.871971 -50.856396 -34.283422 -22.641481 -14.655885 -9.302299 -5.791533 -3.537848 -2.120829 -1.247769 -0.720498 -0.408301 -0.227058 -0.123894 -0.066321 -0.034825 -0.017935 -0.009057 -0.004485 -0.002177 -0.001034 -0.000477 -0.000207 -0.000078 -0.000030 -0.000014 -0.000008 10470.563187 10242.393993 9806.017770 7915.700132 6692.072381 5628.524172 5246.945136 5343.301557 3541.544255 2338.575837 1614.128997 335.484094 -426.614433 -755.490440 -1091.768920 -1338.590417 -1392.935578 -1306.469429 -1155.281070 -987.820743 -826.949694 -681.118954 -552.358054 -440.476151 -344.777127 -264.469929 -198.594256 -145.904441 -104.863371 -73.739989 -50.752502 -34.204371 -22.583213 -14.614190 -9.273277 -5.771851 -3.524823 -2.112410 -1.242448 -0.717207 -0.406309 -0.225878 -0.123209 -0.065932 -0.034608 -0.017817 -0.008994 -0.004452 -0.002160 -0.001026 -0.000475 -0.000211 -0.000088 -0.000036 -0.000015 -0.000009 16903.337815 16228.941902 16346.413474 14529.335235 14937.189428 11245.625426 11057.894041 9007.311580 7803.264992 6276.851200 3176.745808 1194.917881 169.871326 1859.608263 -7715.109813 -4761.403238 -165.478077 3415.883354 394.774134 -3869.414757 -2562.680205 -380.516851 127.413102 -4031.739821 -5635.726946 -4575.352304 -3935.976344 -3533.846589 16122.368940 15798.500361 18185.415709 14227.237420 12553.950884 14339.369358 11482.676988 14436.429606 8526.738765 12728.353781 12702.803114 15906.371426 12328.348599 15350.754668 13717.700496 11289.880410 10177.704748 13266.804699 9662.931468 10814.434194 7181.080890 8876.637927 6003.881656 6555.241036 6465.988880 7784.881954 322.801190 -4063.474138 15709.707788 15134.253713 17532.156477 17575.963931 16846.121346 15097.656579 16213.791033 13017.071670 14174.832749 12109.267007 11965.799004 8173.527665 13351.496824 12991.737977 14429.281530 11783.439785 10632.909825 9335.006037 7111.189467 7287.782258 7661.282584 3594.219561 4812.647711 4268.990268 3713.169645 1802.521069 826.589187 1511.028889 16181.516280 15218.253572 16450.854898 18141.930118 16261.975112 14194.092772 16743.466187 14857.632163 15099.081684 14403.393823 12539.578306 14578.574350 12067.355369 6880.266763 10131.239353 9286.502482 11314.416155 7359.598105 9066.932575 8761.977317 3542.692863 5116.491789 6872.613769 1872.731570 1631.550443 2264.620032 1447.903768 944.836174 17153.131101 16810.197487 18759.217885 17981.209182 16383.556112 16451.433744 16397.281595 14758.654958 17296.603995 14397.302978 12583.159947 11424.183801 12036.731032 12951.810888 16997.686125 10729.099479 8643.190688 9300.682297 10564.614434 8144.221176 5392.385040 7742.178318 5007.732502 2011.554542 1415.027816 1030.350625 403.407358 634.155940 17955.061439 17256.055510 17038.801708 18371.828739 18405.557466 15173.768328 17048.869060 16419.291761 15217.928478 14735.073975 11305.014068 10807.961197 11997.461610 11884.220293 10338.766857 10056.360287 9600.838639 10150.296588 8269.419451 3306.284073 6584.098734 5744.849775 4509.268704 2609.482872 3444.996716 -178.234187 86.894723 507.219337 18711.360278 18514.751284 20089.935538 17314.193699 16257.941743 16925.879345 16755.504882 19848.152239 14995.475702 14994.136193 13217.131321 15872.341917 12820.800941 11530.783292 11476.333233 9765.585840 7606.664111 7284.569669 9346.802106 8825.830991 6457.597026 4034.761582 3383.984682 2444.720283 2203.917774 -467.779180 600.370677 1482.305602 19318.208743 19252.361944 19874.645315 17618.992032 18735.422106 17029.124706 17053.352538 14555.367107 14355.683795 12415.303180 15643.893286 13768.424762 12185.106142 16221.061967 12418.465019 8044.041897 9275.458709 10862.347557 7624.943503 4817.461583 5439.654684 4367.542431 2593.675686 5122.646822 2014.620200 -805.484090 2185.064370 2217.236258 19692.910242 19719.364020 21002.933570 19542.031677 18902.646716 17702.346194 12448.932653 17014.513799 16274.361331 15056.281106 12021.678737 18356.415219 13355.402726 11639.160134 10669.080559 10817.872793 9213.777988 11070.283969 7290.491108 8702.572954 6785.413953 6006.086860 6882.293102 2212.357267 3698.282925 971.667345 1174.344842 1575.248702 19737.208198 19251.723534 19773.647966 19987.692783 19268.715739 19783.614071 19363.265573 19832.437823 17432.939841 16948.705793 14723.497956 16463.554749 11597.592292 14936.766197 9800.753549 9102.858365 9184.661492 12568.386455 7277.526239 9121.629175 8932.675528 2918.844078 5798.016136 2652.382388 2563.608849 2037.752922 1645.361368 973.237119 19781.629866 18349.466471 17894.503430 21470.990206 22151.744164 20908.421594 17272.527218 18163.704639 16849.037428 17156.504528 14872.326575 16462.849760 12656.662525 11184.561906 12174.598074 12595.192200 9571.774669 10539.943275 4160.799284 4870.379891 11447.915609 6021.405296 8022.118539 5230.704172 2144.114258 3241.177029 1048.013591 1437.086948 20135.739084 20052.228444 18255.079576 22195.945323 21025.091842 21576.711038 21308.798298 18128.034226 14280.242705 16638.201288 11162.847217 16965.194911 11931.099948 14585.603810 7909.804197 11362.099379 8996.988155 3772.303355 7714.868737 6337.762823 7310.038626 6752.898434 4401.380945 5014.356074 2353.235515 2240.225987 179.717131 1933.931447 20158.184885 21045.207570 23598.982647 22032.206760 18994.681516 18716.385112 18986.268667 17159.922631 13089.045020 16684.422963 12937.726763 14282.689875 12958.752218 4449.146234 5602.964071 1066.346520 8002.510400 4081.943044 8646.265246 12624.264562 12028.789384 9570.851023 9503.772319 6010.392406 5118.589866 4807.327977 48.153533 3599.637377 19671.636739 19138.018110 17339.468984 21304.520373 23030.237018 20638.320388 18626.190077 17561.741429 14546.796439 16833.352747 13285.016228 6023.177515 6508.538601 601.007281 1571.828140 521.016327 5882.734134 2482.377871 3710.332702 3776.070098 4938.864227 2916.866837 2155.384752 9229.143666 6027.548555 3405.100223 8023.780255 462.700162 19315.560449 19586.755494 19187.366609 20747.587089 19713.864660 20155.465568 18967.519969 15912.194957 15898.796589 13846.950050 11484.534176 8662.513837 4920.819198 1026.570760 4604.942358 4150.576987 -569.596835 5245.119312 -5447.432142 4376.653730 2212.267159 1529.751793 1310.761412 948.709581 3932.289255 4242.030756 4882.046332 2878.637829 19029.015521 17855.756987 16305.328043 22750.769408 22454.580640 19444.349017 18551.417418 18309.801832 13323.495511 8447.788607 6289.362923 1880.980761 2982.297527 19140.826395 18546.645028 18270.175851 20146.970672 19939.556376 18718.840505 18814.588132 18580.752187 15301.105585 14798.404289 4116.441005 7202.902570 3168.207479 19617.250447 18808.530615 19195.916852 18665.555265 23613.474757 17602.001300 17091.585626 15459.659255 10944.690738 9817.406337 4626.459090 3896.560644 6918.868906 20173.422219 21345.876798 24017.720620 19614.492123 22377.441235 17511.485021 20144.500218 13713.449067 10756.536205 8705.290957 3363.021289 1961.421684 -4030.721978 20471.706910 21021.524359 20661.408824 22144.254892 20035.226952 17866.543273 19008.146344 11194.067572 7354.597413 5714.861626 817.460907 -1224.309835 8559.121267 20963.389022 20769.417503 20311.047651 22044.677499 24123.387262 19754.425974 17218.501242 12376.911751 7693.609594 3655.049109 3259.039478 610.736837 1645.202870 21651.705260 20549.304816 20830.540604 22223.377055 23949.285645 20605.581151 15505.458844 16086.555401 6276.841793 6865.828850 8222.808372 5370.111146 5472.274430 22311.847016 20844.581161 19326.518336 23761.178639 20137.198834 19893.986073 14868.255631 12678.216057 9906.997493 6992.370698 6631.752285 5352.438299 1971.033170 22787.617744 21732.916790 21127.043431 21561.886205 20275.413626 19134.729968 16553.769413 11666.593068 11791.437287 7312.775806 4910.433602 5327.166539 -2123.267225 23216.757321 22687.432909 22471.867220 24019.842954 21555.902749 21347.747544 20665.860676 13858.100264 8446.046025 7283.123901 3616.032188 5627.711435 5590.002172 23525.657955 22586.138317 22096.050998 23179.839574 21489.358656 20871.828508 20219.893013 11534.288432 9642.839811 5936.203655 7689.451008 5248.321420 5740.332537 23707.652343 23655.774766 22495.663753 22832.061226 23152.017150 20450.427047 15733.574254 14529.554341 11899.080302 7835.232971 5728.084202 2579.983956 5692.125881 23717.625028 22184.064007 19719.320505 21278.070824 21409.993529 20343.191182 16105.186119 15642.088662 9807.107837 6994.982901 5839.480656 2578.563175 2690.707633 23884.986996 22926.751903 20900.547593 23953.197966 22579.779091 21417.787388 22364.569692 17371.384861 11795.686421 10844.603728 8320.865981 6265.644822 4480.413563 23838.182211 23562.655558 23007.964081 24767.571179 25449.502984 21015.383600 18645.804996 15586.252488 12644.910997 9590.143637 5265.521892 5806.581670 5027.014590 23945.716707 21449.028949 18536.958792 22445.198268 25034.299259 22201.755265 19107.056252 16600.705248 12421.452987 9105.588123 4338.946533 -2621.230853 2552.263836 24893.587470 25028.109673 24143.164973 18493.041428 21101.490731 23086.605423 17730.053335 15015.002098 10242.034265 9492.081098 5641.092591 4713.055226 10054.914734 25749.875168 26361.433523 26993.333957 23358.324064 21427.293895 24810.660302 15669.402933 18139.417706 14441.569815 10465.076436 7292.109051 3386.401120 -4223.686260 26781.243394 25436.605677 22725.695773 21499.580568 26399.003643 20382.296666 20788.344075 17487.404902 13895.630038 6971.909236 6798.770841 3950.075687 3040.846212 27910.286227 27013.609257 23526.092502 27206.295483 24516.337659 22277.196648 21583.201318 17897.191214 14005.135396 5053.875429 6687.251803 8255.535858 15762.542125 28128.188591 27906.704040 26598.794673 24882.026571 22371.571137 25542.923113 19059.779105 14427.566270 14089.163064 8850.863474 9119.940525 6983.781356 7493.170687 27698.890580 24686.217122 20302.125049 23598.204982 20892.813145 24301.923419 19351.739164 14754.758605 16741.392306 9183.456404 11549.927767 7570.791544 5175.032014 27886.730705 24730.606278 20595.053432 24215.009785 23929.233176 23050.589893 18023.791150 14400.300284 16397.585712 9403.006185 4230.365552 6725.088290 21005.646224 28050.589244 27493.709022 26505.561637 24134.507901 23565.605062 22382.543220 19686.449912 12791.337037 15306.571896 8604.614532 5580.999844 10942.392578 5518.299459 27599.117169 26602.089689 25140.572087 22992.723689 23643.021510 20771.487158 19930.204813 13492.482095 14053.477271 9461.125047 7426.685854 11278.054643 7312.115056 27298.182360 26503.606321 25791.059552 22200.915330 24449.243088 19748.824389 18619.700294 15111.978173 12088.246853 10921.923282 7123.388512 11922.452926 7611.817221 26779.987997 27108.206426 26455.859565 21982.594531 25005.743062 19833.995427 16176.116453 16755.535879 8843.995457 11436.876329 3305.831400 6862.652071 25341.131908 25780.316530 25711.880220 23837.473988 21274.010077 24612.598955 20479.856574 13442.431609 17669.991303 6744.201080 11853.217261 7993.854759 8037.897776 5266.946346 25118.465009 24281.596574 21721.216493 20454.655250 23313.868076 20772.585366 12187.941665 17536.318570 7664.122230 12195.906459 6679.391870 7118.975263 9422.905610 25098.343719 24811.115277 22947.084823 21249.347635 22486.775425 20356.296929 13037.181039 16294.157417 9721.194032 10222.955293 5466.605529 5797.592802 11453.656014 25137.956599 24899.691455 23599.585521 21655.168445 22178.512586 19599.351435 14354.092826 14165.272507 11258.975258 6386.537628 7000.098852 4772.959203 10481.970532 24975.116877 25035.039217 23392.017049 21199.873928 21503.544143 18915.524606 15342.552559 12121.729366 12125.727635 4600.369819 8733.680889 5147.502818 7828.043486 24635.025474 24990.161822 23515.664808 21134.769145 20846.038141 18288.117188 16005.054263 10991.330805 12356.617059 5260.261992 7997.009155 6270.537558 5282.663122 24130.108994 24483.044700 23823.543357 21560.448317 20686.093720 17796.328151 16199.374442 10821.318217 11966.280619 6657.754792 6066.149156 7087.505790 1589.360525 23531.297991 23663.667396 22520.270028 21895.201842 20537.663945 17576.811360 15953.031498 11220.607888 11083.489354 8062.983768 4250.392716 7842.924429 -430.221637 22996.504869 22627.621020 21148.160685 21403.536539 20163.284414 17521.082457 15527.896582 11717.606472 9931.515383 9363.904514 2604.705513 8842.063299 304.378831 22624.685706 22071.280803 21015.893409 20830.308458 19900.780669 17446.181489 15098.368767 12067.836144 8940.822741 10094.645371 1294.975933 9544.887952 488.737198 22358.263800 21750.392070 20492.935020 20979.472656 19802.724321 17369.981468 14738.251081 12255.908710 8363.014864 9888.094744 830.427347 9287.978835 1363.610483 22076.066747 21581.939723 20680.953933 21316.703876 19649.608715 17387.338349 14471.751117 12345.487747 8163.585686 9060.452314 1620.200507 7548.188188 3301.606962 21688.481125 21304.835163 21002.896792 21188.848196 19302.131418 17462.411363 14329.641025 12386.948497 8255.268380 8201.784005 3088.278212 4822.941444 5746.595576 21229.104195 20794.679517 20637.154018 20721.180866 18918.657694 17491.414718 14328.635469 12389.424066 8587.702607 7563.645743 4229.035507 2434.718472 8450.044473 20795.621112 20245.771592 19997.590482 20291.938951 18697.592019 17440.362530 14424.829984 12356.262031 9115.573036 7138.997501 4942.589004 1226.457058 11464.199292 20425.144252 19841.377127 19778.448102 20099.681646 18529.955571 17303.901367 14530.491617 12301.891718 9729.016187 6902.355645 5795.441523 1183.782319 15079.230442 20081.235297 19528.967567 19729.500418 19919.045902 18254.484069 17054.927112 14555.555849 12233.348592 10261.686806 6851.218748 7094.350744 1593.108893 18965.715617 19724.480312 19166.115671 19464.065152 19521.583522 17843.492976 16657.242376 14433.494676 12123.823407 10565.939978 6971.409853 8344.541426 1628.247367 21752.156578 19348.151455 18721.202318 18945.108718 18893.313099 17295.613188 16105.992957 14136.552655 11922.616591 10571.156382 7194.038632 8835.102333 1588.774769 21884.551171 18964.618474 18218.781827 18243.173232 18065.001637 16629.573633 15427.965984 13673.329613 11590.235446 10292.389747 7384.063511 8409.335169 2140.911911 18617.825994 18588.344804 17693.761353 17444.145475 17126.128340 15893.697297 14660.438149 13077.827414 11122.539411 9797.825440 7400.150188 7457.260927 2931.046618 13381.479894 18229.675295 17173.375060 16613.466370 16163.281060 15130.833401 13849.528708 12397.685010 10551.188278 9172.386894 7188.404975 6428.433266 3371.766746 8646.831097 17894.722126 16674.766427 15785.719064 15233.120686 14377.046400 13041.396352 11683.626285 9927.740420 8494.371577 6798.318907 5530.861086 3382.458793 5523.052874 17586.833013 16209.812839 15002.520607 14375.963099 13669.240497 12279.686598 10984.799724 9308.077222 7829.478428 6325.077451 4810.201926 3157.632568 3712.624112 17307.676369 15786.943942 14292.848753 13616.428846 13029.232418 11593.042391 10336.671646 8734.126300 7222.490034 5848.641722 4252.213685 2865.848565 2689.244630 17057.933838 15413.013237 13675.848010 12968.368043 12472.390071 11001.723790 9762.164044 8230.624112 6698.670239 5415.203294 3828.613083 2589.218372 2103.917606 16837.645065 15093.020532 13164.766575 12434.433894 11998.464756 10508.599538 9267.305438 7801.723104 6261.911314 5041.395958 3509.582739 2354.998313 1758.069465 16646.570765 14829.468887 12760.977365 12004.858030 11598.019069 10107.168252 8848.053646 7439.830463 5901.326064 4721.647520 3261.124488 2159.320737 1544.006960 16484.457950 14621.989721 12460.460168 11669.544889 11264.209103 9787.709975 8496.050705 7134.172494 5606.550272 4453.231108 3064.636031 1994.244442 1401.308676 16351.000650 14466.060242 12243.214349 11401.207155 10975.238602 9529.549654 8199.904249 6874.111067 5360.316341 4220.155831 2900.449330 1852.467501 1298.517337 16245.786968 14354.410363 12089.739287 11192.070594 10740.710946 9334.542128 7957.815637 6660.616837 5172.203960 4038.010120 2773.632030 1734.023914 1216.871172 16168.033629 14275.929089 11968.856910 11009.720052 10530.005099 9171.579253 7763.747884 6491.066011 5025.658814 3892.311516 2686.331911 1656.175654 1156.087990 16116.643605 14221.460570 11864.164818 10863.302515 10378.611651 9059.703520 7616.010134 6372.177562 4948.354391 3808.083942 2634.381635 1607.937958 1116.997730 16089.886247 14179.695912 11749.246329 10719.258849 10223.100787 8947.371525 7507.406258 6284.815091 4892.849162 3758.151189 2635.660201 1617.455179 1100.236070 16086.348785 14146.526426 11625.469161 10595.661339 10139.064475 8857.292617 7417.193642 6232.924506 4889.032710 3733.209271 2624.472011 1634.820483 1110.458652 16104.089495 14120.076518 11473.716392 10457.603603 9973.936132 8732.664058 7326.759199 6146.989755 4849.423897 3725.413673 2642.348365 1665.770404 1128.404693 16142.446043 14090.176977 11297.402157 10301.439038 9914.084798 8572.470175 7230.670180 6074.213159 4794.667484 3650.173915 2596.794703 1660.272549 1132.426862 16200.016063 14088.717633 11104.879932 10123.231757 9664.973378 8389.193618 7058.812372 5900.016424 4711.233915 3587.231432 2508.765182 1644.731954 1126.082545 16271.950913 14049.767369 10849.205011 9878.893444 9589.858715 8121.358946 6946.777434 5727.342555 4485.541544 3465.294923 2416.320682 1487.246096 1067.560716 16356.129771 14073.840043 10615.101972 9655.830327 9291.209654 7903.332827 6658.972967 5541.089708 4405.034377 3247.230201 2274.687938 1499.578510 978.812024 16439.329381 14001.438308 10289.870833 9391.413239 9265.898807 7642.676867 6630.187966 5229.120976 4131.618774 3224.688570 2106.255102 1231.204339 881.521913 16520.151605 14039.370882 10154.234037 9275.926129 9086.872502 7483.202477 6384.698193 5263.466117 4004.692366 2955.145029 2027.678119 1440.117949 728.515072 16587.389490 13929.973905 9849.784671 9213.473405 9220.343119 7535.726728 6427.841173 5079.396491 4016.649480 3051.132242 2003.716637 937.101265 820.144642 16694.535636 13970.347097 9951.286967 9643.983599 9147.387264 7594.189343 6791.663386 4908.718078 3991.821653 2895.001456 1956.068565 1582.022838 502.041091 16905.125476 14150.606339 9831.979235 9597.523228 10215.392103 7323.021221 7082.036320 5793.827027 3929.776786 3305.467785 1974.918877 1217.262915 739.338632 17179.503167 14999.965123 11022.988533 9912.490477 10036.835587 8062.775133 7340.570744 5669.072331 4471.231260 3126.032342 2246.108886 1597.811886 772.184411 17341.231600 15433.715856 11857.907051 9974.084785 10354.343253 9343.865030 7597.827179 6918.821728 4950.936118 3568.684967 2522.254315 1619.933986 756.502110 17505.136462 15764.839356 12304.822090 10468.304974 9824.015571 8952.222829 8207.605667 6248.026196 5237.702330 3772.549519 2380.899316 2154.061393 1030.932832 17751.668548 16101.710888 13193.118560 11353.881278 10856.383497 10046.516999 7279.611209 7827.219910 5704.702465 3961.938718 2906.904420 1627.645873 1170.648200 17968.209208 16040.842320 12356.218992 11280.594512 11959.369058 9115.469355 7709.795180 6126.764971 4826.868859 4286.949845 2570.028573 1938.388534 1439.679712 18252.109829 16037.433270 11693.080694 10702.931769 11707.285001 8322.478985 7845.296180 7914.182763 5101.181962 3956.046529 3150.287619 1160.561341 1465.550407 18590.150317 16768.107357 13699.606353 11647.560504 10533.591390 8291.740776 6382.913938 5353.239175 4158.810402 3099.927368 2804.467717 1436.085823 834.461528 18334.434666 17303.647256 16145.978101 12321.506386 8675.100972 7618.785958 5774.519322 4845.156298 3739.644524 3020.186628 2923.261546 2022.477874 2203.650381 16931.757418 14718.488020 11235.406800 9601.817927 6594.364202 6437.554412 5307.670458 4360.585642 4856.555752 4493.166940 2546.654898 728.544811 1600.233248 15129.749266 13502.479832 11694.969522 8781.893748 6596.095807 7448.101471 6436.548016 3638.593689 7053.863351 2948.492214 1636.494450 4701.832353 1379.893363 13783.430292 13491.444955 10712.988664 6056.416687 6386.498160 6359.837444 6198.309394 7095.664677 6262.834496 6355.197073 8622.298879 3790.550280 4757.094837 12656.993282 13869.730466 12160.862439 6163.834590 4623.257427 7149.460762 5749.026647 5564.562621 8463.237182 4343.274269 1919.900732 1835.032590 1397.871867 11165.266195 11147.125642 8679.402057 5042.456097 8570.750372 6196.966072 9179.210294 2968.645999 11700.425976 4225.778518 6377.363005 5693.386092 3877.593467 10361.290197 10490.676761 8490.623064 7028.799829 5845.485313 2060.846641 6295.649226 2654.657946 8194.302236 -2406.895117 9857.749223 5001.562195 3327.126472
</DataArray>
<DataArray type="Float64" Name="Velocity" NumberOfComponents="3" format="ascii">