<VTKFile type="PolyData">
<PolyData>
<Piece NumberOfPoints="2177" NumberOfVerts="2177" NumberOfLines="0" NumberOfStrips="0" NumberOfPolys="0">
<PointData>
<DataArray type="Float64" Name="Pressure" format="ascii">
 12036.978204 12156.138688 12173.303146 11858.411706 11205.800526 10330.611893 9208.505599 7726.335382 5956.850866 4321.970458 3287.778280 2768.456366 2359.981488 1898.757534 1353.871296 595.130337 -384.317004 -1147.487280 -1502.051623 -1751.918887 -2298.732227 -3216.940724 -4025.155934 -4398.659415 -4458.555822 -4364.842977 -4188.895061 -3959.423634 -3686.244664 -3382.096541 -3067.028631 -2756.001445 -2457.057085 -2174.517516 -1910.840318 -1667.405248 -1444.849764 -1243.247623 -1062.230346 -901.083441 -758.827323 -634.286463 -526.148657 -433.015848 -353.447504 -285.997340 -229.244121 -181.817910 -142.425505 -109.886101 -83.208938 -61.758826 -45.438929 -34.345460 -27.943220 -25.227990 12457.136809 12670.530305 12744.349128 12223.546131 11236.722421 10307.808181 9447.119266 8214.141636 6368.953599 4492.461496 3835.092224 4167.145952 4215.637385 3624.185361 2535.589332 1185.188976 -588.573254 -1533.973700 -1584.585130 -1457.231707 -1698.846226 -3214.737627 -4445.594127 -4671.172651 -4583.358103 -4422.118489 -4225.704779 -3996.379665 -3715.750384 -3395.471154 -3072.015688 -2757.824421 -2457.860656 -2175.010679 -1911.242909 -1667.780195 -1445.211654 -1243.596984 -1062.564265 -901.398747 -759.121455 -634.557628 -526.395786 -433.238480 -353.645607 -286.170941 -229.392299 -181.935701 -142.494027 -109.842291 -82.859970 -60.733188 -43.479516 -32.475685 -26.647088 -24.327494 13034.994492 13372.009444 13724.965220 13077.081458 11316.339107 10068.337783 10195.225809 9672.077346 7727.572654 4715.540195 4452.637692 7775.231988 9259.135281 9256.871078 6268.838530 2473.911204 -1035.976558 -2333.176279 -1712.389532 -771.508359 -394.790316 -3504.787302 -5424.317694 -5075.134654 -4739.801916 -4490.827575 -4273.756831 -4064.758241 -3782.897302 -3415.340211 -3077.244579 -2759.192694 -2458.051865 -2174.827757 -1910.937049 -1667.435395 -1444.859153 -1243.250546 -1062.231255 -901.083722 -758.827406 -634.286472 -526.148605 -433.015647 -353.446824 -285.995064 -229.236514 -181.792508 -142.340749 -109.602996 -82.273854 -58.452298 -38.586326 -28.769287 -24.448554 -22.840721 -28.304368 -23.952506 -22.019757 -20.764995 -19.261298 -18.317689 -14.632636 -14.272284 -13.923138 -10.530206 -10.435184 -10.316010 -7.575238 -7.554687 -7.511008 -5.420191 -5.419580 -5.400921 -3.848976 -3.852900 -3.843197 -2.710248 -2.714454 -2.708517 -1.891686 -1.895160 -1.891167 -1.308574 -1.311216 -1.308419 -0.897077 -0.899013 -0.897030 -0.609440 -0.610831 -0.609426 -0.410298 -0.411283 -0.410294 -0.273738 -0.274427 -0.273736 -0.180983 -0.181460 -0.180983 -0.118581 -0.118907 -0.118581 -0.076996 -0.077217 -0.076996 -0.049545 -0.049693 -0.049545 -0.031595 -0.031693 -0.031595 -0.019967 -0.020032 -0.019967 -0.012506 -0.012548 -0.012506 -0.007763 -0.007790 -0.007763 -0.004776 -0.004793 -0.004776 -0.002912 -0.002923 -0.002912 -0.001759 -0.001766 -0.001759 -0.001054 -0.001058 -0.001054 -0.000625 -0.000628 -0.000625 -0.000368 -0.000370 -0.000368 -0.000215 -0.000215 -0.000215 -0.000124 -0.000125 -0.000124 -0.000071 -0.000071 -0.000071 -0.000040 -0.000041 -0.000040 -0.000023 -0.000023 -0.000023 -0.000013 -0.000013 -0.000013 -0.000007 -0.000007 -0.000007 -0.000004 -0.000004 -0.000004 -0.000002 -0.000002 -0.000002 -0.000001 -0.000001 -0.000001 -0.000001 -0.000001 -0.000001 -0.000000 -0.000000 -0.000000 -0.000000 -0.000000 -0.000000 -0.000000 -0.000000 -0.000000 -0.000000 -0.000000 -0.000000 -0.000000 -0.000000 -0.000000 -0.000000 -0.000000 -0.000000 -0.000000 -0.000000 -0.000000 -0.000000 -0.000000 -0.000000 -0.000000 -0.000000 -0.000000 -0.000000 -0.000000 -0.000000 -0.000000 -0.000000 -0.000000 -0.000000 -0.000000 -0.000000 -0.000000 -0.000000 -0.000000 -0.000000 -0.000000 -0.000000 -0.000000 -0.000000 -0.000000 -0.000000 -0.000000 -0.000000 -0.000000 -0.000000 -0.000000 -0.000000 -0.000000 -0.000000 -0.000000 -0.000000 -0.000000 -0.000000 -0.000000 -0.000000 -0.000000 -0.000000 -0.000000 -0.000000 -0.000000 -0.000000 -0.000000 -0.000000 -0.000000 -0.000000 -0.000000 -0.000000 -0.000000 -0.000000 -0.000000 -0.000000 -0.000000 -0.000000 -0.000000 -0.000000 -0.000000 -0.000000 -0.000000 -0.000000 -0.000000 -0.000000 -0.000000 -0.000000 -0.000000 -0.000000 -0.000000 -0.000000 -0.000000 -0.000000 -0.000000 -0.000000 -0.000000 -0.000000 -0.000000 -0.000000 -0.000000 -0.000000 -0.000000 -0.000000 -0.000000 -0.000000 -0.000000 -0.000000 -0.000001 -0.000001 -0.000001 -0.000001 -0.000001 -0.000001 -0.000002 -0.000002 -0.000002 -0.000004 -0.000004 -0.000004 -0.000008 -0.000008 -0.000008 -0.000014 -0.000014 -0.000014 -0.000025 -0.000025 -0.000025 -0.000044 -0.000045 -0.000044 -0.000077 -0.000078 -0.000077 -0.000133 -0.000134 -0.000133 -0.000227 -0.000228 -0.000227 -0.000385 -0.000386 -0.000385 -0.000645 -0.000647 -0.000645 -0.001072 -0.001076 -0.001072 -0.001766 -0.001772 -0.001765 -0.002882 -0.002892 -0.002882 -0.004664 -0.004679 -0.004661 -0.007480 -0.007500 -0.007471 -0.011894 -0.011916 -0.011863 -0.018757 -0.018761 -0.018652 -0.029368 -0.029272 -0.029008 -0.045758 -0.045253 -0.044521 -0.071325 -0.069275 -0.067077 -0.112841 -0.104718 -0.098179 -0.183551 -0.151263 -0.134793 -0.235957 -0.178434 -0.152649 17520.233999 15030.913661 11518.834448 14337.252967 13811.114784 13417.404563 14693.740647 15748.832227 13015.457553 14119.039841 14563.213743 15690.621549 15326.959556 16212.531964 18961.189718 22128.249071 22203.674714 18268.373753 18626.982815 16532.884188 18376.497517 15732.890771 17460.398071 7630.357714 2884.580893 22073.211195 12016.431211 -11270.618638 5621.242350 22200.408824 11936.291300 3328.048258 -4349.083100 -9019.713093 -2768.786501 11577.287666 3589.676291 304.151402 -1.163862 -28.115712 -24.266948 -18.743740 -14.181865 -10.609870 -7.855861 -5.756552 -4.172807 -2.988948 -2.110190 -1.459323 -0.972460 -0.585760 -0.310265 -0.207138 -0.165003 -0.147944 17872.936449 16719.465286 15700.995385 16143.615806 13552.775831 14263.071733 15715.488091 16015.828154 12776.443411 13745.003272 15177.948701 16585.174459 17459.534775 18230.797427 19474.895970 20427.851470 20885.168576 19992.088255 19354.371405 18023.207336 16582.600896 14383.700146 12419.362365 10478.974532 9830.795378 10226.097191 5477.522136 3468.419627 7816.813056 8532.650007 3760.560469 698.845188 -301.058899 1023.531904 3403.671480 3186.591907 1171.965812 168.602440 -12.589669 -28.968241 -24.342215 -18.766487 -14.198315 -10.623081 -7.866396 -5.764844 -4.179269 -2.994019 -2.114491 -1.464259 -0.982236 -0.621519 -0.366495 -0.236171 -0.177191 -0.154486 18388.604419 18209.359305 18078.837699 17721.254309 16541.176002 16865.142377 17477.579716 17255.478080 16181.690583 16463.208793 17255.143380 17946.774083 18493.252177 18971.543183 19447.264467 19925.377888 20189.641669 19937.289472 19116.341308 17697.656614 15883.581758 13905.120965 12086.984834 10553.598429 9223.674781 7466.492347 5767.392781 5495.657541 5526.305000 3903.308760 2091.234248 1380.802514 1725.366195 2367.245910 2368.289606 1421.429213 468.404743 64.928698 -23.459464 -29.838045 -24.382543 -18.750684 -14.182240 -10.609892 -7.855871 -5.756584 -4.172914 -2.989319 -2.111464 -1.463710 -0.987314 -0.641132 -0.402758 -0.260440 -0.187953 -0.159491 13286.517202 13544.282722 14083.778505 14162.058375 12066.402468 10063.587154 11293.180378 11205.214354 10310.002443 5616.986284 5525.221296 13544.201491 15715.458897 20208.695909 15116.424657 3297.125408 -1096.227690 -2602.355747 -1769.617155 -574.206384 -176.873243 -3865.037258 -5888.904702 -5225.272383 -4784.815959 -4509.999449 -4289.032277 -4098.915907 13706.975292 13726.415912 14502.571569 15433.726468 14757.597211 14755.087033 15681.098693 9180.611704 15119.182688 14837.244574 15490.943112 11000.851595 11440.130051 14105.577107 13832.405014 10918.113268 14060.103747 14643.245658 12445.586452 13824.327047 13330.821885 13130.994242 13290.880961 15384.823755 13625.868080 14045.308206 -116.887638 -1894.636195 14049.882395 14092.955751 14471.405551 13484.618588 10606.941855 12241.980573 14656.786927 13649.799101 14195.973846 10301.024867 12940.868428 14865.288048 7448.220784 13097.322395 8404.968750 12750.913561 11516.082994 11499.319744 13486.628259 10864.914075 10552.297838 16029.911544 13911.753844 12491.167731 11994.046061 12826.604963 14920.289098 12568.014141 14184.940405 13740.779010 13072.428004 12264.765848 12253.005696 12161.746044 8386.539859 7774.491974 14005.421621 8089.853390 10895.791125 15230.767490 9576.669505 7978.766460 10665.824560 7078.321341 8712.430432 2470.295910 12415.532765 15536.387963 8799.372300 14689.019110 12080.772500 14440.340365 3658.776487 13398.538607 11236.424864 13909.294907 14272.675555 13533.182365 12787.815306 13224.166380 12996.422519 16023.520980 16873.772486 16598.695901 14651.555001 14169.300368 10717.802028 9625.931716 12312.248933 7392.252307 16669.735612 10818.567108 9459.835674 11193.013647 8840.145544 7109.765132 7728.122398 8045.477628 9294.980805 13642.113215 -5082.688982 3071.257127 4267.471250 22548.758328 14241.874615 13563.061876 13576.812319 15290.256687 14711.161344 14422.796924 13666.695588 16343.487823 13145.472081 11951.873878 7158.258239 7613.613040 6109.654048 8609.156401 11474.977050 10170.913310 7860.475151 3085.566551 2750.583764 4385.808383 8395.913861 3541.583611 9951.765197 7803.080597 5356.942409 4498.519538 4071.110725 -82.559219 14062.031046 13546.804767 13227.466152 13898.408241 13058.201176 11461.388326 11764.939246 11578.607139 11234.054632 13049.352948 10362.554157 13340.798866 10190.737487 6842.318106 7487.974024 8764.574588 9776.032783 6740.408608 11843.732947 5998.959194 6477.874584 3396.683246 2026.707524 7176.718426 4680.846878 1385.817604 6631.274907 -1003.521480 14217.652161 13927.275456 13970.575239 10642.122133 14842.916971 15354.279628 14664.575971 9815.299837 12546.458449 10365.523302 9559.949900 7138.137780 6823.272921 12899.015225 12429.200646 10704.164005 6036.915408 8213.581065 7924.088203 8506.292579 6440.315607 10048.719241 4060.947672 9439.673862 5110.356477 4523.085712 3292.579058 5515.402059 14757.695882 13840.939818 14116.197551 13172.335491 11846.429344 15787.917267 11353.738470 14941.794289 15455.441369 14904.732646 12356.728723 13761.482434 9312.484944 10908.778811 6796.749060 9349.096635 9848.155418 8560.165338 3367.784059 4778.737745 7878.200163 2831.520886 2428.355629 6517.690183 4263.146395 -109.009068 4449.780628 5941.704216 15177.089642 14270.580086 14502.085518 13673.983421 15722.432662 14468.316767 14453.460498 13510.105934 12765.659238 13172.233926 12037.496263 10389.270153 10213.482720 10596.764689 7381.021751 6938.049777 5107.021327 7797.165646 5636.508029 9693.109960 5185.480491 4488.661138 5843.650687 3659.272091 5302.304775 2039.535565 2935.541765 5116.923931 15233.591687 14086.989795 13977.730082 15375.915799 14513.371579 14241.802698 12836.712410 14085.191533 9229.979156 14315.875579 10412.732007 12915.540637 6451.526243 3784.432841 9334.002567 8532.094308 6623.898562 7971.240113 4622.347287 8712.463658 8040.703456 2641.004301 4070.345299 5104.257928 2611.918702 5140.432898 5666.821054 3609.265848 15260.571014 14482.102786 15220.479568 15971.840913 13919.829403 13999.648510 13782.975329 13908.494577 7820.910865 11385.658734 4271.258092 12867.579678 7007.169530 11132.862591 7593.221462 9101.732023 10179.908474 628.236459 1046.237436 3578.113640 4700.918818 8698.447129 1336.112491 7603.490388 4547.578262 4747.601751 1516.070086 3653.634053 15409.016786 14514.782023 13647.687131 16111.054812 15507.658183 12631.805602 12151.682029 12607.054114 7423.432492 13083.222985 7960.198421 10526.215766 9488.323124 1851.360312 7343.872126 2967.191898 5733.807946 1042.293530 5103.859213 9976.884192 6358.248888 5731.929744 9519.734423 5182.183344 1915.376726 -349.404757 2988.695963 1327.061645 15680.726341 14801.676807 13968.304564 14990.195159 13512.922209 15398.280165 13520.146355 14826.856289 9664.872808 12657.599134 8225.239103 2786.541176 1873.345666 1436.836455 1189.485656 3054.858559 5126.706557 447.644442 4710.464568 446.743283 2799.663789 1707.734338 1445.776579 6400.826923 2036.542730 3937.364177 3481.602595 1707.112452 15698.016183 14164.180432 12360.299722 16279.195121 12767.551943 15011.897605 14278.472534 10549.626412 13438.146021 9837.856240 3793.497949 4801.227857 956.931187 1290.930046 2720.683290 -114.887855 3436.193216 109.326773 2773.207083 2363.447709 2164.189221 1115.067847 1591.237993 1256.457443 3146.931567 2221.398539 1512.688820 2064.986320 15346.408569 13650.576209 12019.444236 15908.179787 15931.587888 13847.759926 14506.158445 11980.244649 10828.883976 7472.528739 3406.155236 878.379062 2484.617900 15221.217055 14884.304911 14291.224306 15811.410009 15067.342396 15468.023690 13437.525975 12758.130144 13585.108125 9268.974411 1567.946023 484.555547 1192.395872 15399.347607 15213.242863 14365.734447 15902.876622 12885.118678 11665.219791 7534.761934 11823.975575 5184.752250 1566.813500 6092.831288 3363.385768 6447.504030 15590.363265 15046.178106 14417.425222 15668.578086 14917.027033 13787.655385 10678.536712 8149.364462 5443.282589 2554.778296 1240.638940 1330.061341 1999.608268 15447.639592 14499.255825 13217.583794 15623.076074 13239.010970 10365.320138 11037.320999 6005.878370 1760.510319 2738.579244 4839.040878 1200.912975 1617.449196 15137.996611 14058.366002 12489.936469 15162.629723 13654.811732 14105.347187 10466.588398 5877.484477 1115.478874 1505.043319 7825.355593 3008.056720 2946.172073 15255.011669 14954.924260 15436.373477 16340.971730 15783.090592 13477.927742 7432.426509 7909.789977 3454.692688 5315.095541 4713.348172 2151.663373 179.021054 15753.257982 15890.743887 15538.838759 16349.051010 12694.592408 7197.919521 5081.368763 5117.479804 5936.303958 3408.471007 3519.775132 2582.637855 1304.396420 16153.010632 16513.576060 16973.248581 13942.552933 12312.963496 8552.215675 8463.977931 9218.458769 8858.305226 4747.976645 4759.827508 1010.299142 1219.524923 16147.732786 16107.560367 15766.999940 14919.528014 13636.717662 9864.716497 12681.173239 9566.751673 5508.669683 6061.080961 3529.467687 6813.137562 8405.317323 16042.050579 15659.887251 14586.244411 16519.682413 12956.777206 12566.192874 8158.465876 9258.150935 7866.070975 11267.253578 3831.241960 4772.918146 -8378.088682 16232.818553 16916.272698 17922.893526 14939.005183 15566.224804 13075.541404 10644.673816 8279.839661 5057.530994 6660.662886 8627.319800 2098.206377 3315.979359 16330.453446 16346.313980 16418.813662 15815.325293 13559.116918 14830.033192 10565.727223 12561.896325 263.093370 5861.686691 7277.288346 4232.919980 2512.731236 16336.687200 16155.974333 16154.990833 16540.404812 12774.592467 11617.323267 13108.012524 11674.678002 3573.989913 10458.506881 4251.582907 5711.950906 2954.793127 16432.951351 16275.328310 16308.688580 17604.137782 13619.684196 13494.483556 12290.187218 15650.103853 9476.342126 10878.019396 3024.997139 6146.992853 -1357.374775 16600.551958 16634.051189 17254.721534 18360.620927 15790.128378 15591.011732 15380.606611 15214.881586 12686.042602 12068.175430 6175.519839 1265.326664 1861.061329 16673.590128 16620.314338 16636.244666 12585.962333 16696.569970 15636.138383 13899.841593 11163.095030 7689.690781 7603.057196 3445.794219 2854.100447 662.538027 16740.987945 16292.920406 15338.462867 16543.968921 15666.996842 14096.725594 14395.268514 9073.298676 12749.749037 16777.704479 6061.896670 6062.458085 14352.961353 16997.716634 16675.273731 16112.373333 15263.415098 16277.933571 15335.050687 10449.773053 11016.398923 9582.171917 7514.637722 6797.870828 6345.835941 3968.572668 17191.297515 16586.547679 15680.558330 16527.741117 16274.300145 16665.664056 16978.252666 12428.581964 11240.285052 8971.898727 9575.885660 8023.241955 304.246794 17210.281140 16837.485020 16120.922240 15956.774126 15985.618821 17739.421798 14744.056117 7056.750092 13366.857503 7965.615215 3388.334189 3398.169973 3136.278810 17079.726834 16715.514772 16340.044092 17413.207711 18126.054354 15972.771909 14145.280761 15492.616786 9813.483279 8022.390085 7227.155069 4684.430246 3522.753021 16925.449127 16523.516254 15897.227693 18005.253598 20027.201600 17012.072578 13176.204644 15347.654544 13450.772228 7386.017357 4304.971850 2905.115201 -12531.983882 16881.376249 16718.886692 16214.588806 18748.121454 19320.221036 16033.727802 16234.680130 9402.667350 8853.252762 11574.984312 6421.151871 5083.872941 1770.146047 16879.903593 16656.261814 16571.890684 20024.904268 17188.397835 16581.500917 9036.490224 12547.928941 10296.141011 8916.944317 7516.576894 4323.446969 3142.592023 17051.830267 16411.252995 15716.875304 19200.836151 19390.763340 11832.011610 14980.958070 11569.305548 14809.910099 8793.309025 6617.200528 5599.891513 1684.268774 17517.678444 16866.713305 15692.435565 18535.283964 18489.160305 16602.865597 14262.856802 17559.522330 10341.607608 11097.016117 1015.785964 2214.293442 -8496.644632 17954.113698 17065.569014 14725.706255 18444.791189 16991.159767 17036.125279 10622.364694 11894.834386 10317.443152 7124.389368 4641.122226 7690.193242 1147.719726 18181.043205 17444.802734 15747.330983 22730.729017 18427.683286 14520.032402 17010.494494 15185.480573 12825.789898 6689.030890 3477.713992 221.863135 1740.961690 18227.081083 17614.012309 16432.248522 19778.782438 18859.302480 17465.785633 20614.969216 16614.520289 10747.802763 10328.760560 6505.333553 6916.040931 4362.994561 18245.032772 16834.211459 14996.774062 20861.535829 19141.309481 16300.035822 15626.784614 17487.531353 14813.459076 8823.492988 8548.960770 4450.613649 3154.410196 18353.687405 16487.095039 14877.513839 19891.575087 17417.281200 16557.716048 16889.961630 16682.460563 8411.427212 1715.877030 7477.322784 7379.056085 2895.512381 18497.205000 17550.605325 16201.829452 19948.360851 18648.814120 17641.310657 12052.973134 12194.455227 10641.813329 4651.061914 3233.601177 7690.927332 3991.966749 18607.271636 18423.707641 17856.497745 19815.502153 17127.091038 20137.006932 13703.271281 12581.671696 16717.025877 13811.678779 12090.212029 3909.097464 -162.078324 18587.616408 18251.820421 17419.721103 19734.454253 21283.449122 13971.773036 17408.259649 16085.550494 12810.734774 12239.984219 9006.015613 2387.899800 3965.191029 18459.284284 18370.416569 18461.701761 20119.994317 20274.201828 21558.674448 20383.409441 18028.301152 10796.109920 7905.717896 5416.301529 5825.713886 2159.834202 18275.136977 18269.746428 18967.122967 21391.061460 21656.314957 18984.041400 19908.836676 20025.840205 9937.041985 5477.666062 6253.973565 6092.751722 803.469616 18316.690642 18481.909172 18925.755961 21973.047506 20342.050287 20526.263886 18105.728419 12639.207193 8251.000126 9089.498670 6915.446079 4613.230672 6234.420760 18759.189622 18421.730639 18499.797151 21608.854199 22274.242811 16246.901397 14208.030363 10156.098361 10125.780901 11030.344406 5287.644827 1175.131329 995.383889 19456.248183 18086.840525 16806.097557 21627.534865 20359.543296 20630.831127 17506.765255 11046.527852 11659.702651 9661.831268 1284.316323 1867.392958 1274.613227 20067.248795 18995.254398 18020.540440 21702.958001 20553.348200 20249.941383 17112.032434 16121.854263 16608.869531 12596.350024 6294.475615 4476.400574 2531.559865 20348.511824 19848.395641 19003.201087 23153.807441 23426.741424 21503.044734 18653.092221 17616.525342 16117.044976 12828.939065 10366.695410 7632.553808 5574.537703 20412.343525 20618.899611 20074.268524 25050.949789 26585.089764 23014.370123 20670.080383 18441.733121 12004.685433 6221.508257 7537.491683 6962.676803 4209.560766 20395.311399 20039.962841 18813.347766 22169.252470 25071.147763 22572.097049 17446.122985 16131.539519 11092.278019 13032.815491 5146.887177 1269.858906 2950.983954 20565.488767 18816.630061 16857.416150 22564.938735 20951.246511 18629.782235 16840.847664 14885.921134 10701.148810 8077.778461 1932.004427 999.044641 4147.793856 20976.944938 19853.862708 19239.492718 20395.658697 23761.392077 20752.595148 16617.019899 15910.460555 11212.830560 8995.772275 5510.422823 2622.879038 2007.891944 21449.731939 21688.305141 21036.621828 19678.372615 21022.819483 17009.085726 16739.087001 16733.988670 16284.554348 9955.174059 5923.313431 3700.285113 -60.158724 22015.471691 22689.504647 21950.075352 21872.438906 21423.117550 18720.168693 20566.296230 17697.380603 13768.752341 10156.284632 5740.061532 798.562774 -524.335468 22523.040750 23323.578276 22246.799977 22594.051514 21562.311746 22045.565507 20885.057205 14024.639888 12239.486166 9721.250605 4301.132544 6554.022990 6021.076313 22535.330607 22594.537306 20987.391069 22972.948925 20048.294711 20739.785518 19481.513230 16393.953529 15321.372696 13549.762532 6365.047944 7111.136765 6918.436485 22254.194538 22578.231803 22164.924735 22161.995110 21348.716059 19291.118914 18152.979903 18764.624843 12409.191309 11192.423303 7798.247246 6588.026460 5988.185976 22259.524551 23046.667279 23000.802932 21810.440460 22208.412356 20471.123874 18937.017805 18563.296111 13920.740206 11677.885035 8893.412730 5368.782350 8198.384572 22605.835630 23919.573834 24114.908126 23807.709517 22239.046617 20750.416522 19613.839113 15407.565432 14837.004085 10466.516450 7874.218554 6986.525843 2439.034388 22926.263572 22787.841327 21491.785763 22142.570146 22705.111110 20507.369070 15427.215476 15505.299218 10434.528598 7241.507132 10883.406758 4359.710295 10799.198820 23377.388697 22761.049353 20883.459893 22327.598728 22456.721290 21983.527454 19390.658657 14767.581934 14923.308301 11246.085546 8095.846927 3475.863635 1448.890531 23755.080681 23529.441286 23032.873653 22394.325454 23342.141489 22618.487963 16865.992399 10618.611014 12892.953469 11227.551232 8714.406760 9330.379897 -1984.424203 23731.210087 24098.955381 24993.778130 22323.542559 21751.439501 21925.632650 18635.850993 17696.900621 16674.896955 14436.623104 9128.722519 7878.031282 2187.763525 23514.707338 23663.408602 24712.497115 21630.719779 20294.079771 20789.408818 18892.108376 17084.572253 13392.849289 10656.221278 6834.173598 13470.733341 4585.208750 23926.087591 24423.917437 24722.919136 21103.011874 23426.744525 20495.130174 18205.924547 14350.604899 10045.267784 9782.241539 5294.750845 5508.866615 14123.730629 24786.847315 25110.151079 24203.401440 21402.823223 21573.753181 18925.550010 18814.055974 17899.707018 11778.079916 13044.673476 6806.689032 8201.241744 1828.000696 25366.853293 25063.008862 23846.041624 22699.947682 21699.643914 20716.268300 18132.888078 16870.736977 14634.103841 10461.860803 8352.317556 3202.713237 3779.692686 25718.177439 25184.340852 22840.782106 20367.450538 21641.874213 21066.738312 17938.350877 17393.973955 14766.849918 9654.696164 3817.881738 36.905730 -1505.883818 26283.743619 26261.625543 24417.055319 20736.996240 20761.319249 21800.209296 19774.060872 14978.122227 15161.962862 11132.799802 7332.383964 -2940.529667 18216.721469 26995.381299 26895.509294 25228.334129 20891.105745 21174.703106 21126.670299 17860.502118 17989.567132 16058.947706 11233.793327 3604.355518 4522.989550 6015.186211 27576.387446 27657.313547 25646.984702 20790.435427 19480.069803 19911.459287 19650.330865 17882.426835 16165.735462 13431.245613 9742.321403 7877.442540 9348.312255 27846.642122 27240.756386 23236.791965 22043.343917 22505.530329 21583.858799 19607.050446 18665.522007 15436.232164 10994.086069 9730.736638 9303.053119 24828.373964 28026.555052 26750.298566 22101.740669 21609.546437 19940.350387 21149.529090 19748.673219 16055.971937 14283.794445 8984.252613 8840.536745 2877.162740 12785.633253 28279.508371 27242.020126 23401.512940 20996.617224 21148.022184 21131.040176 20471.910179 17915.209702 13696.309030 15376.548797 16359.492516 4365.274656 -8382.395954 28552.846616 28488.395428 26111.583112 22058.652925 19590.053246 20883.750236 17099.844233 17053.668653 15887.252365 15007.960081 12516.419524 8655.984119 6768.717505 28675.551115 28294.428790 24971.347145 24090.825763 23001.311884 18916.060848 18790.934459 17223.012933 14356.658448 15011.012338 7106.403996 9637.095906 2432.347899 28680.201072 27487.491006 23054.185941 23016.603325 21176.180310 20519.115136 18294.916771 17162.165584 16307.126404 15296.850419 8719.354813 5482.721693 -12429.453133 28816.261140 26715.878527 21677.817206 22270.151345 22671.154849 20462.141464 19101.445483 16247.786228 15388.745747 12311.303540 14187.584767 5332.217185 15785.085313 29248.041164 26535.566785 21766.877332 23569.246771 19459.057683 21811.519079 18171.148643 15962.615995 13454.643329 13220.219425 10866.475994 12779.775316 15060.424955 29643.645873 27318.007660 23107.820567 22954.202492 23574.758118 17923.546670 17583.488224 13893.588158 14859.427280 15957.064110 14535.365984 13239.086120 22597.106745 29532.407596 25889.430881 21315.999060 21146.447240 21269.797757 16317.574032 17984.443869 18737.144765 13266.766628 13077.307138 11695.525074 18387.848237 18661.821251 28945.329364 25687.707969 22615.055380 19893.964400 20611.149181 15662.901318 15390.324415 19005.821169 15609.760656 10844.192599 13207.989286 10466.225995 -12437.766059 27625.401236 25339.268558 22421.073111 20573.966926 20739.685823 14972.407979 14816.113253 15158.689739 15926.288472 12888.013661 12826.488326 11082.913656 13171.178622 25729.894347 24088.994436 21923.046419 23290.228396 21186.865329 18425.583804 16611.756728 17861.072456 14906.054506 14196.301435 11787.440537 16999.034142 15122.432853 24086.137191 21685.001943 16875.057994 20818.639758 19606.138250 16154.742611 16766.992764 14582.828350 17385.962914 13752.455237 14803.446410 13330.553686 -16513.675125 22810.618463 18780.384541 10689.982528 19826.007872 16177.990339 16746.921918 17271.681319 16748.805349 14359.127045 12356.483316 15431.532951 10177.363425 18319.221941 21138.627601 18644.573428 13178.855772 16529.772901 18223.136037 12812.984221 17392.279415 16977.370432 16872.360440 16242.926309 15285.670828 11770.763202 14271.665609 19429.391215 17854.292939 14889.037442 19693.384214 17973.705154 17848.557429 18023.759984 18580.513220 14908.361513 17687.157527 14720.138500 15537.995332 11906.983394 18821.705915 17963.933974 16869.184358 19662.456478 19775.749521 16755.431043 15714.052269 17685.463163 21103.954992 17031.397074 13791.595053 14723.293868 15741.873002 18708.100851 19416.008563 18284.250648 21733.462368 21709.592330 17965.491124 21284.557831 21927.157750 26270.102110 21363.464694 15171.986496 10601.792881 14176.616223 17936.175019 16784.546796 13044.346317 17602.585796 16767.281651 18831.756549 17357.563478 16112.282410 14945.290944 18457.174698 22874.757927 15423.711732 15312.989464 17520.233999 15030.913661 11518.834448 17450.561032 20596.018352 15348.374498 18022.167183 19920.540383 21509.131888 19978.094431 13838.821394 16523.982931 14361.108583
</DataArray>
<DataArray type="Float64" Name="Velocity" NumberOfComponents="3" format="ascii">