<VTKFile type="PolyData">
<PolyData>
<Piece NumberOfPoints="2177" NumberOfVerts="2177" NumberOfLines="0" NumberOfStrips="0" NumberOfPolys="0">
<PointData>
<DataArray type="Float64" Name="Pressure" format="ascii">
 18286.336478 17904.809858 17288.513184 16616.056878 15947.335747 15251.901452 14472.902574 13579.398241 12566.865353 11398.127080 10027.084724 8413.591254 6577.774055 4593.893433 2508.298063 574.621957 -822.850430 -1619.030033 -1982.422945 -2089.756902 -2055.021864 -1946.218628 -1806.707941 -1666.003774 -1543.827840 -1451.917084 -1395.534509 -1375.001901 -1386.883917 -1424.484361 -1478.657417 -1540.004181 -1600.250128 -1652.681479 -1692.247071 -1715.519444 -1720.577531 -1706.836720 -1674.841832 -1626.035051 -1562.511687 -1486.778641 -1401.530921 -1309.459567 -1213.100233 -1114.726816 -1016.290577 -919.404943 -825.385539 -735.389730 -650.800013 -574.072537 -509.739280 -462.856911 -434.623496 -422.505227 17934.555952 17512.641932 16930.705327 16405.096146 15786.276905 15050.327147 14189.860206 13207.175395 12202.837634 11102.587774 9770.310358 8025.213834 6012.448505 4078.293389 1881.157410 -286.755203 -1520.587877 -2008.953467 -2172.711844 -2177.967098 -2095.573089 -1965.372105 -1816.419909 -1671.520079 -1547.337821 -1454.213077 -1396.728668 -1374.967491 -1386.031829 -1423.974303 -1478.426213 -1539.851447 -1600.070585 -1652.449897 -1691.970610 -1715.215945 -1720.266635 -1706.536286 -1674.566417 -1625.795296 -1562.314212 -1486.626295 -1401.423274 -1309.393467 -1213.070113 -1114.723927 -1016.298726 -919.385122 -825.225572 -734.750399 -648.683733 -568.493421 -498.977649 -451.413122 -425.389797 -415.178241 17521.764824 17090.822120 16957.021034 16556.402100 15751.078836 15156.737057 14073.310583 12613.123634 11578.011376 10415.217659 9292.996425 7225.746053 4352.905883 3553.729584 1050.565336 -2359.292601 -2634.974741 -2543.013181 -2406.052411 -2281.611534 -2142.476749 -1987.329434 -1827.404147 -1677.611058 -1551.085789 -1456.553871 -1397.820657 -1374.108759 -1382.588942 -1422.461801 -1477.932496 -1539.742350 -1600.157401 -1652.649054 -1692.235858 -1715.515605 -1720.576227 -1706.836280 -1674.841682 -1626.034992 -1562.511636 -1486.778521 -1401.530548 -1309.458350 -1213.096256 -1114.713818 -1016.248094 -919.266102 -824.931940 -733.906064 -645.991711 -557.541165 -473.809378 -429.304248 -409.533596 -402.926733 -423.235030 -402.681607 -394.251511 -374.057136 -366.660325 -362.485248 -324.808223 -323.027922 -321.377519 -283.869833 -283.388711 -282.810885 -247.903040 -247.801054 -247.578242 -216.020688 -216.027953 -215.920993 -187.732077 -187.769144 -187.701486 -162.681586 -162.724509 -162.672201 -140.562569 -140.604217 -140.559690 -121.093832 -121.132212 -121.092949 -104.013402 -104.048102 -104.013131 -89.077119 -89.108215 -89.077036 -76.058375 -76.086087 -76.058349 -64.747945 -64.772535 -64.747937 -54.953680 -54.975415 -54.953677 -46.500009 -46.519149 -46.500009 -39.227299 -39.244090 -39.227298 -32.991084 -33.005761 -32.991084 -27.661229 -27.674012 -27.661229 -23.121032 -23.132124 -23.121032 -19.266294 -19.275884 -19.266294 -16.004389 -16.012649 -16.004389 -13.253327 -13.260417 -13.253327 -10.940848 -10.946910 -10.940848 -9.003529 -9.008694 -9.003529 -7.385948 -7.390332 -7.385948 -6.039869 -6.043576 -6.039869 -4.923488 -4.926612 -4.923488 -4.000727 -4.003350 -4.000727 -3.240578 -3.242773 -3.240578 -2.616499 -2.618327 -2.616499 -2.105863 -2.107381 -2.105863 -1.689461 -1.690717 -1.689461 -1.351052 -1.352088 -1.351052 -1.076958 -1.077809 -1.076958 -0.855707 -0.856403 -0.855707 -0.677715 -0.678283 -0.677715 -0.535006 -0.535467 -0.535006 -0.420971 -0.421344 -0.420971 -0.330152 -0.330453 -0.330152 -0.258060 -0.258302 -0.258060 -0.201015 -0.201209 -0.201015 -0.156014 -0.156168 -0.156014 -0.120610 -0.120732 -0.120610 -0.092818 -0.092915 -0.092818 -0.071029 -0.071104 -0.071029 -0.053940 -0.053998 -0.053940 -0.040494 -0.040539 -0.040494 -0.029833 -0.029866 -0.029833 -0.021249 -0.021273 -0.021249 -0.014156 -0.014172 -0.014156 -0.008054 -0.008062 -0.008054 -0.002502 -0.002505 -0.002502 0.002898 0.002902 0.002898 0.008528 0.008538 0.008528 0.014763 0.014779 0.014763 0.021987 0.022009 0.021987 0.030602 0.030631 0.030602 0.041029 0.041065 0.041029 0.053706 0.053749 0.053706 0.069076 0.069127 0.069076 0.087565 0.087622 0.087565 0.109540 0.109601 0.109540 0.135247 0.135309 0.135247 0.164728 0.164787 0.164728 0.197698 0.197745 0.197698 0.233378 0.233402 0.233378 0.270279 0.270264 0.270279 0.305919 0.305844 0.305919 0.336466 0.336302 0.336466 0.356287 0.355996 0.356287 0.357394 0.356927 0.357394 0.328774 0.328070 0.328774 0.255585 0.254567 0.255585 0.118212 0.116786 0.118212 -0.108833 -0.110783 -0.108833 -0.458167 -0.460779 -0.458167 -0.970949 -0.974387 -0.970949 -1.698446 -1.702901 -1.698446 -2.703736 -2.709430 -2.703736 -4.063530 -4.070714 -4.063530 -5.870063 -5.879022 -5.870063 -8.233030 -8.244078 -8.233030 -11.281487 -11.294970 -11.281487 -15.165657 -15.181947 -15.165657 -20.058544 -20.078034 -20.058542 -26.157261 -26.180362 -26.157257 -33.683961 -33.711087 -33.683947 -42.886242 -42.917798 -42.886195 -54.036909 -54.073259 -54.036757 -67.432982 -67.474377 -67.432486 -83.393866 -83.440244 -83.392252 -102.258775 -102.309134 -102.253524 -124.383950 -124.434354 -124.366859 -150.141709 -150.178813 -150.086097 -179.928321 -179.908052 -179.747386 -214.204578 -213.979965 -213.615906 -253.644888 -252.713892 -251.731366 -299.868093 -296.271746 -293.617111 -354.841349 -341.373075 -335.115962 -385.736459 -363.401560 -353.372279 9379.679325 9916.830557 10510.792075 9366.818854 9426.459604 9657.167035 9122.911248 7770.707210 8017.759384 7269.418637 6486.985004 6021.083900 3694.244933 2230.499362 1438.525673 883.036775 449.761930 86.611611 -232.208303 -519.684756 -782.138478 -1022.311614 -1241.052358 -1438.300182 -1613.666274 -1766.756500 -1897.331472 -2005.370700 -2091.086362 -2154.914754 -2197.500433 -2219.679456 -2222.463312 -2207.022883 -2174.671186 -2126.843843 -2065.076790 -1990.981264 -1906.216624 -1812.461869 -1711.386926 -1604.624819 -1493.745778 -1380.234178 -1265.468865 -1150.706749 -1037.067799 -925.514392 -816.801502 -711.314384 -608.594215 -503.717576 -412.966504 -374.673802 -358.088773 -351.756103 9221.688216 9450.416237 9681.438772 9493.807378 8847.584557 8318.856397 8288.374092 7468.986648 6832.446900 5937.280688 5008.683464 4136.037925 3090.925031 2135.346461 1418.195790 879.179309 449.419180 86.928481 -231.829720 -519.334810 -781.808977 -1021.985337 -1240.718940 -1437.956174 -1613.312638 -1766.396446 -1896.969076 -2005.010170 -2090.731715 -2154.569725 -2197.168460 -2219.363692 -2222.166617 -2206.747797 -2174.419883 -2126.618086 -2064.877882 -1990.810017 -1906.073341 -1812.346352 -1711.298502 -1604.562398 -1493.707968 -1380.219541 -1265.476600 -1150.738773 -1037.135348 -925.659533 -817.167978 -712.392267 -612.007485 -517.295573 -436.815337 -390.333277 -367.654199 -358.908424 9106.117491 9221.856312 9410.836333 9375.406759 8887.042549 8333.795485 7881.589943 7151.013414 6314.256922 5441.900266 4585.128911 3734.910724 2859.567010 2054.924227 1395.196860 872.375374 447.167093 85.990401 -232.356391 -519.720293 -782.147064 -1022.313673 -1241.052833 -1438.300282 -1613.666291 -1766.756500 -1897.331471 -2005.370699 -2091.086361 -2154.914754 -2197.500433 -2219.679455 -2222.463312 -2207.022883 -2174.671186 -2126.843843 -2065.076790 -1990.981266 -1906.216628 -1812.461883 -1711.386973 -1604.624971 -1493.746273 -1380.235794 -1265.474140 -1150.723968 -1037.124004 -925.697835 -817.400001 -713.270394 -614.907847 -525.795483 -452.677630 -403.129780 -375.616008 -364.403921 17407.335052 17161.363755 17385.551345 16632.619047 15594.792095 15428.648245 14504.158318 12413.704014 11302.625728 10511.196430 9536.845409 6749.789011 2530.854991 3177.397412 310.521753 -4753.723340 -3472.463531 -2720.422979 -2474.469162 -2310.898127 -2155.685542 -1993.446475 -1830.294860 -1678.988206 -1551.712587 -1456.749261 -1397.709047 -1373.110907 17517.452977 17038.856590 16543.687772 16445.331621 16899.138265 18366.676271 15617.532357 18955.991066 17052.716139 18457.055254 17159.210953 15925.012071 18209.895772 18238.322601 17246.556705 11516.739021 17623.796680 16914.562287 15312.289505 15848.405113 15769.589321 15436.703110 15125.545195 17482.964373 17750.540068 13812.277592 3094.442538 7650.895902 18049.828617 17182.655926 16421.080221 18624.225605 16029.800177 15267.655720 13515.588712 15866.676781 15519.621939 8303.758758 16046.302367 16876.303908 16121.301741 17448.276604 15684.162299 17698.096584 19214.962484 6227.743200 15897.613663 15686.511700 15570.228145 15914.741995 16109.859399 14124.966998 12585.701719 8887.479041 13584.258941 11973.713639 18553.893187 17837.168360 17202.919042 15060.840536 11913.069347 18852.135449 12972.307816 9423.518794 12700.203236 17314.883396 19179.478569 14585.058613 17748.576863 11158.366750 15459.315095 6613.533402 13640.709012 4758.686269 13152.750527 16411.843884 13045.750637 13325.148176 17078.318157 11964.224472 13409.049309 15337.933482 11104.799027 5432.457095 18887.647824 17606.347260 16133.003013 17634.400166 17102.239556 15217.623579 15559.485313 12258.204680 17627.781504 16116.905187 15425.949946 3352.274405 11512.463006 7364.772775 17095.644371 15309.180486 12105.589858 18573.402295 14895.875887 16469.351411 8564.047650 17234.181029 10138.212841 4779.397639 4847.660019 3419.366783 10502.847656 1550.063050 19405.924216 18311.543001 16795.098396 17639.431127 16119.446017 14082.149321 17478.080213 15666.392863 16527.918893 12368.105716 7417.385169 14554.334562 10352.862033 11944.057579 12329.195861 9352.014666 6829.601916 2203.877340 5236.973090 6575.330696 12661.779040 2359.785315 16280.502779 8135.165640 6324.573720 9606.120050 3244.627133 5981.255793 19953.187450 18773.428813 16302.042170 15772.067620 14802.897979 10024.575899 14756.865089 11723.294276 16759.760037 13290.388503 15368.468018 14474.615492 13032.741236 8622.850446 12885.474201 10956.060336 13507.320429 4765.004046 13222.849495 10814.533219 16319.813969 4099.844164 -114.647271 6882.248306 3393.862284 1860.711874 1766.327195 5407.755920 20275.014731 19590.749768 17383.140503 16258.915488 15486.270710 17214.124222 15865.080847 7848.351113 14038.811955 5989.885999 7128.836417 9109.525192 16300.488256 11659.106567 17144.356445 10779.393319 6424.269500 14273.907023 12986.699732 8729.502301 9435.856031 15880.690914 3596.079414 12876.010468 13159.444632 7496.470582 4716.145363 4269.264104 20172.876421 19549.456358 17562.176782 16197.846767 16115.557838 16225.759372 15797.234375 17875.066896 17977.029933 16040.065133 16741.387597 11449.939952 14899.657988 10461.058597 6632.331480 17510.701397 12981.606288 12952.167925 5173.119795 8030.257452 7057.319859 6373.386570 5553.064276 4949.932838 9577.908107 1434.627063 6508.068606 4477.829811 19827.782847 19468.263094 18564.119661 19457.700865 18280.549080 18165.620898 17009.185959 13718.226527 11909.545104 10482.745549 10306.643786 3874.597229 10816.538466 12078.824542 6008.612278 7561.620503 6449.679821 10007.266238 6177.786860 12185.260679 8395.174314 4421.722341 7879.976836 10776.592134 5732.382549 4800.473623 1842.907017 6296.183773 19665.172553 19502.665549 18551.440191 18717.622605 20590.419949 17503.778542 10093.756062 18698.345222 5674.315709 17098.273350 8599.564338 13562.394515 8961.660122 4028.197903 11067.097942 8590.918751 6171.729481 9263.991683 10546.617270 7469.664806 8319.201435 5928.659585 6614.130247 7097.327634 4678.093145 7911.912136 9580.595798 6102.172812 19736.609430 19567.487243 19588.042082 19834.033948 17814.348802 20014.369791 15133.967736 17763.783103 12586.432414 11798.679085 5912.191031 8656.161074 15014.485173 18909.888314 9616.806543 13333.721136 13559.018764 3543.960027 4776.440910 5275.161048 10537.360386 13493.593000 4850.434613 7861.281052 6182.521255 6668.846691 4070.318247 2256.278609 19704.008840 20068.271635 20505.118126 19238.846687 19534.971621 16315.180781 12081.590514 15460.337513 8071.708260 14156.514716 13384.382240 15586.628581 16198.035079 3331.463979 8703.867389 1148.457015 12592.711400 8451.079958 7773.452750 15582.286427 10849.272302 7574.835637 13844.253935 5420.930130 7788.339934 2043.470579 5536.565526 8802.809689 19562.698872 19960.572988 20273.022715 20521.105754 18128.419104 19132.352280 17240.443074 13993.967889 11008.060964 19756.269903 12304.399602 7039.442485 3934.594519 3435.907311 3975.906841 7835.583425 9706.621119 3120.352801 5896.760329 5607.775966 4408.964086 4709.467754 2214.412346 9838.281279 4188.410277 5940.034848 8186.779569 2926.681649 19588.899964 19630.108609 18195.396013 19662.484593 19285.940590 22593.518500 17510.495666 19013.022598 17517.949848 14244.457813 10786.552190 7867.377360 4948.220515 3282.453143 4038.698779 739.223957 1450.920191 4140.796822 891.302726 5029.488800 6932.184777 1388.376272 2192.288903 4320.356248 7500.584098 2695.672729 2611.583104 2221.199086 19747.291870 20685.892617 21188.153758 16622.235714 23045.549871 18935.603070 19795.153538 15304.686044 13560.486618 12680.998639 11249.282111 2674.196218 10584.827635 19573.269485 21072.514017 22914.580940 20966.160766 18350.481375 20236.006406 19714.184027 17773.554530 19282.437731 8949.319123 3875.856712 1987.203022 10304.767930 19385.634238 19799.961465 19847.774235 19334.056739 19778.380949 13955.360961 4768.321791 18973.280477 11120.914780 5933.885690 6892.235348 7983.249662 9671.369961 19760.068189 19563.236645 18564.601818 22280.901850 19168.258879 20491.605941 14281.151434 15527.870880 6065.182761 7850.543703 7069.665983 2586.871736 4794.166965 20195.239441 21107.702793 22055.875619 20309.155847 19160.281481 17179.412900 12818.685411 8260.253125 5489.587471 9320.711765 12919.283984 4313.891740 2060.893349 20108.598185 19711.695987 18677.883211 22561.643356 18508.476033 18901.942937 12233.429733 15094.223249 1948.321439 7133.132764 10248.514233 4949.833918 5029.183925 19939.127279 18875.317643 17905.410522 20060.923454 16272.172120 20385.144388 12392.932970 10546.364946 7557.940985 12616.622860 11657.576053 1977.882292 4528.099869 19933.738575 19211.672434 18016.119192 23619.097728 15914.030008 5563.621404 5209.756732 5840.683130 4241.395472 12676.509370 7346.404600 7846.477902 14048.893741 20064.588994 19517.541545 18111.424467 19008.580490 15720.153752 9627.444550 12473.998174 14518.291048 10768.654416 10309.450181 3927.170304 2488.328350 15823.432505 20166.978029 18329.938949 15940.003629 18762.428181 17362.843065 17885.701172 16095.939400 8632.483480 9468.737497 8923.920637 7070.793703 6309.880375 15598.055829 20125.227164 19024.258052 18519.052440 18425.476576 13048.303641 15320.017557 11428.964107 9197.573989 12086.007846 13524.628644 8241.899761 6413.017332 11023.691758 19545.297648 20595.328673 22296.418947 19139.450208 18944.479923 15814.370755 15300.783440 13993.055767 8798.271313 10962.165468 12001.466717 638.090455 5096.713042 18757.065662 17038.192154 16816.209784 20657.801322 15109.419435 18799.498575 13388.197119 15640.772514 3617.788698 10950.004506 12660.798232 4963.324496 4649.551173 18954.935725 16234.635539 14795.778478 18261.340366 15223.274383 16464.296567 18697.225164 14511.061195 6910.757319 16269.173875 4612.297886 5385.827724 5610.769223 19564.324330 18522.360615 18751.603644 19850.030863 14930.562454 15828.792623 17840.387583 18615.532985 11312.283598 14562.646042 3448.410068 8093.899487 4927.160305 19601.981174 19006.708565 17542.767546 16629.145298 16625.911880 18011.514901 20345.052900 16096.533169 11416.464809 14439.121108 7223.475557 12357.565679 -179.935177 19547.052246 19933.965803 21119.237736 12124.271474 20827.742594 19069.361359 13431.537014 16700.650253 5036.964166 10246.956463 4751.646217 5085.038570 5459.434624 19837.007891 20542.285767 21923.130292 20693.931175 19416.033662 14995.338914 13608.011375 13702.805920 9670.835618 16805.549425 6706.804647 8518.415435 3723.083797 20353.819108 21028.912112 21489.046324 19725.101936 18944.139750 16816.146844 11998.461492 13713.675401 13522.510372 5967.905540 10774.259813 10238.249420 510.695359 20469.424778 20700.127098 21904.950930 19185.861373 19990.814612 14706.709014 16762.904349 7019.965300 11856.961155 13236.270174 14939.156310 6722.461925 -7699.646448 20247.660066 18735.722450 16963.480563 18113.379138 17710.715158 18137.254004 16035.778012 8750.235027 15204.059742 8119.639304 5158.740078 10291.843209 2016.680179 20188.881597 19874.018121 19870.464963 19020.763290 18647.783030 19513.067251 9065.826579 12133.039548 13408.954334 6968.202027 8840.307274 7488.609062 4049.728012 19887.170145 20406.568332 20317.492321 18069.799257 18798.647693 16938.980190 16106.783172 8721.712807 11786.799555 8209.572522 7702.938333 8181.908455 5410.324930 19589.307922 19703.212426 20336.442020 18191.946015 19435.471001 13900.718631 14924.680758 13913.536731 5259.808428 6762.237864 4208.755470 6894.342150 10887.652887 19627.680306 19191.050515 20289.843454 17860.894457 17950.476827 17901.210996 12387.918966 16354.367808 7271.023142 11238.881615 11270.893936 11211.645640 1571.495547 19995.792153 20521.661512 22258.750308 21249.108573 20532.035272 8628.644485 11845.873649 12004.297640 15172.805335 13498.445722 9480.684999 8352.269307 11051.350903 20352.147571 20595.371874 21660.176287 17336.895261 18346.508598 17928.592423 6139.831878 19762.934504 9489.447427 12803.181229 6942.283086 9578.848461 4296.780053 20586.488622 20059.463676 19844.120645 20100.891844 17795.009219 18326.291875 8451.672467 14771.562928 7568.407007 9728.096598 12731.565915 8044.991169 7733.339626 20625.511722 20478.135383 20538.404526 18918.325701 17238.251508 13790.747082 15622.976791 17895.107622 10112.327430 12614.645078 7802.858244 10459.074347 4736.420085 20441.746205 19179.209135 18347.915230 20386.327343 19591.167143 17608.508145 18345.298156 15155.655498 7126.919430 9918.590854 8909.324020 6971.022653 2771.369148 20466.330527 19146.820902 18170.514774 19295.889812 20840.735540 9857.570953 11127.095903 18347.601931 17938.653079 11807.780682 11056.467820 10722.253945 5658.032479 20549.459155 20159.755981 19155.808675 18767.833132 15393.300015 10060.064741 13466.794240 15572.662413 9205.570596 7785.942429 10566.488190 7652.422495 2582.579516 20532.285426 20280.027616 19150.124732 19808.162408 17019.858783 18865.788730 14386.999288 14301.619562 14281.120287 7832.653599 11085.586780 7490.425195 5873.585795 20492.531996 20404.251362 19756.898343 19849.985676 18150.418337 16457.715554 14138.680456 14138.584406 10036.108534 11876.314810 12038.120699 4692.855736 5428.900678 20395.986928 20635.388985 19594.209341 17975.201526 19685.633271 14494.030912 16181.246803 13921.284767 7981.698180 13252.097450 12564.675041 6751.479651 6523.925741 20095.107619 20843.093223 21456.465568 18854.115698 18911.435615 15890.834405 17345.463069 13948.408256 10218.115970 7161.617337 9582.258194 5748.550024 5351.885410 19535.830592 20100.262751 20243.538003 19201.122033 17599.446866 15870.097055 14032.330605 16619.965094 11070.220414 6867.143784 8569.097599 7117.279849 4165.924783 19153.188739 18739.700319 18824.583274 19152.055535 16294.548726 16431.579578 19061.956376 9864.595806 8637.045135 8016.336696 4413.828155 7729.368489 1881.114731 19202.195113 18964.404212 19582.259100 19483.241367 18604.608321 15305.773533 9132.043484 9052.285276 7999.531167 10300.131524 5873.378455 2156.969797 4559.939357 19297.779516 19121.523713 19198.264765 18956.754268 15970.922872 17895.686214 11788.811165 8852.835917 14505.470458 6408.512618 4872.467508 5891.064980 4399.976762 19156.307795 19430.102850 19542.252687 19799.477406 17498.538750 13977.670073 17222.977308 13596.396502 11426.604218 7512.012759 7613.596168 6820.424004 4562.919714 18697.312357 19565.243299 20227.768723 16912.448561 18443.742277 15975.968307 13966.066829 11910.956783 12347.224634 9852.621952 10821.722521 6511.774608 6864.614283 18098.909956 18495.555117 18403.186165 19786.561015 16752.451575 16273.504610 15729.965538 12832.283864 13540.331862 5631.834690 5787.299665 7341.900123 6057.511436 17643.892125 17850.707035 18237.781582 19594.466116 17660.490614 15802.296537 13905.581460 9191.896471 8279.016985 10325.850473 6012.163598 5798.228312 2269.980680 17265.103054 17243.427623 16602.620618 18503.800954 17179.463998 14263.693645 9723.040387 14267.090193 10351.259688 6858.250132 5641.305770 1538.866270 4713.192789 16937.481560 17152.868929 16904.720242 15840.277604 16133.439683 16082.710518 11411.560555 12280.977728 12794.297116 8376.940577 7897.263322 6921.257994 2491.684002 16606.407463 17384.777853 18395.325047 17332.433579 15365.717103 11985.222067 8050.397711 11860.467648 10953.160809 10753.438475 5746.658879 7128.273709 5898.082509 16225.739807 16788.177581 17552.996205 18095.624169 14286.906512 11919.157408 14550.045599 13826.715198 9391.344436 7094.793110 6250.299383 6098.239350 4798.589602 15842.303805 16003.514943 16374.052205 16726.595353 15483.564012 15015.469699 9448.549789 10037.808300 7106.599273 10733.095015 7632.653503 1609.685929 5875.241598 15609.140379 15589.514913 15804.455907 17780.178123 16521.956835 15083.453175 14655.040840 12551.538713 11434.059986 8838.927633 5193.334023 9000.539610 9316.978718 15655.393359 15787.208725 15902.568472 15715.325596 15213.982035 15748.082416 14836.429589 12617.714509 6794.352873 4733.540723 9863.195385 7040.248656 6945.559948 15819.922184 15288.902929 13944.808602 16508.054460 16488.354154 13748.181076 13090.542613 10768.211220 12850.916582 10734.240777 8585.959620 7541.783484 4865.481860 15950.918067 15629.244393 15282.637431 16764.262222 15628.382712 14883.587751 14763.652952 13470.239559 13478.835754 9135.530697 8161.873502 7545.126284 4493.081338 15850.157727 15505.812504 15033.657495 14652.036036 15830.659287 15229.173225 7788.930355 14320.413185 10431.010793 6534.154036 10353.114461 5814.218663 6887.073723 15756.581001 15637.931179 16142.465799 16532.346696 15543.204236 16667.064939 8886.344656 13691.771151 13024.190308 11302.477557 11131.913212 4544.073840 2672.481459 15729.541166 15439.816595 15903.476845 15028.875842 14948.680284 15137.301894 14699.308879 12206.015454 8327.554209 9809.658999 8288.619283 12058.103226 3155.977808 15644.339499 15690.557906 15711.633953 16160.531095 15111.583907 13512.175734 12750.012388 14083.721698 8033.830355 8200.039311 10747.758063 4815.779077 4013.216080 15201.021696 15573.289936 15974.730502 14618.114292 15357.661702 14339.575660 12200.424116 13520.032463 7543.406828 8819.563212 6829.747842 8112.298117 6840.032523 14602.196839 14348.345069 14427.711233 15082.830864 16185.451601 14751.757261 7844.363020 9038.775443 6179.020621 6728.625149 7644.938753 9000.614796 2740.427898 14266.555912 13940.498024 13498.951338 17319.646973 14401.021763 13579.885491 14282.109923 10538.566386 11568.799460 9653.456911 7151.803718 5761.384385 5436.763752 14028.978472 14209.049870 14037.660881 14055.055017 14993.785216 12913.895039 13323.746178 10717.577202 13378.647909 8649.605055 7127.907831 8259.878707 1526.478317 13650.590931 12637.906947 11736.823327 17287.484220 14681.943296 13909.644346 13218.271246 10820.130242 10427.411607 9577.322658 4850.048987 6153.480317 1592.196692 13415.907017 13444.880390 14327.733250 16625.440844 15780.384173 13103.840273 12504.385480 10650.986159 11046.316569 8161.868987 8454.036339 2937.788313 3937.881647 13307.603810 14185.175745 15444.461587 15078.517669 13576.584839 11612.934838 11610.457818 9619.431362 6921.989970 13168.509812 8085.573460 6872.931203 6227.878270 13186.789816 14506.420956 15786.120133 16160.107424 12897.175502 12830.255233 13643.192659 13049.038909 11132.168107 13501.071379 10729.072759 7628.367026 6807.316155 12771.513074 13406.507023 14269.012613 13501.223565 13152.409804 13829.362296 11697.632851 12419.242965 10377.361968 10918.087419 9695.802448 5569.856226 5081.276902 12116.920435 11232.417750 10781.498231 15801.382225 13307.623592 13701.704462 9257.718172 11294.451249 4956.288120 7959.947930 8603.489893 6713.632206 4174.753306 11902.015720 11102.063687 11080.531759 15471.972015 13671.617925 13473.709032 14258.596943 13429.110870 6651.471028 6102.363572 7020.928690 4916.237404 2951.418280 12160.260341 12591.271840 12012.505442 15454.417673 11708.721486 13242.930038 12428.628001 11094.176884 6726.183723 10597.925440 6144.988029 5659.423967 7736.612884 12244.264180 13223.300482 12541.017082 14726.866599 14392.536339 13025.261572 8069.365272 9274.229045 9287.266721 9824.210792 7353.230555 8901.697195 3927.738866 11810.645880 11852.114699 11319.778301 13809.323671 12050.743047 8511.326468 10003.658708 13581.550561 13293.449235 10313.860371 6245.336242 5743.716172 5152.949764 11198.347559 10766.663387 10952.787860 14043.490422 13015.005454 11645.317131 11703.748072 9135.858426 9332.670058 13402.542210 7843.483766 10894.215573 6764.775328 11005.716821 11614.634328 12994.709266 12270.037821 10527.664885 10942.429825 9184.878495 10372.253550 8698.703945 6281.877495 9162.952157 5542.864969 3785.379838 11323.897168 12086.660557 12605.689489 11721.379725 15738.212791 11697.534248 6587.229558 8768.901071 5235.183725 6428.523128 7437.585994 7130.427600 3789.745764 11853.156360 13028.473188 13425.034887 15145.816543 9892.596255 10370.533008 9402.230694 8959.395009 7484.632068 7688.093124 7899.511532 8467.996257 7770.566832 12265.283727 12309.176969 11249.108413 12667.954427 10968.174808 11252.745629 9180.800112 11003.343716 7944.703031 10524.299334 5799.969774 2595.052584 2760.262240 12536.190018 12331.242196 11414.998120 12755.080957 9378.733213 9217.831190 9347.993607 5694.647606 7985.274935 6933.719629 3819.161645 4513.870089 2643.808559 12386.051053 11994.105652 10921.293476 9418.497755 9597.714888 11617.143577 9153.162680 9843.986842 9526.892163 10063.684894 9182.322730 5279.182956 7307.724131 11738.906898 12095.967586 12402.183685 8843.079337 10911.437676 7938.191227 9940.332804 5796.348011 9238.282019 9236.895612 8153.943423 3977.951084 5344.911171 10932.233133 11968.766701 13715.377841 14824.395764 9398.213324 13581.410572 9023.620214 8819.080092 11709.318041 5545.835783 9301.272314 6351.598482 4653.451375 10516.474816 11867.817001 14596.464636 10873.980396 12475.025034 7895.227411 11015.860699 8786.726139 11655.821038 9290.497152 8213.743117 9644.362064 7686.486509 10485.199452 11363.417405 12832.985885 9644.179909 9656.540969 11531.243573 11733.492506 13071.294747 9512.783495 11557.632609 9736.400224 5734.801593 3117.806360 10387.108264 10962.255689 11639.112610 11986.538042 10589.026413 11885.748547 11824.086846 9023.856552 11375.541861 11140.717811 11484.929644 10006.311134 5071.308838 10078.417862 11552.213546 13373.975415 13536.605464 11183.961607 13642.223084 11688.842915 11173.355389 11594.079710 10809.592353 11007.411830 9148.085451 12507.224554 9649.750000 11293.742392 13320.860769 12291.780211 12054.858455 11857.981160 11808.980875 9147.963558 12581.872727 9293.783164 14970.034041 11830.929090 12323.741380 9379.679325 9916.830557 10510.792075 11478.646000 13745.193385 13000.344745 12090.720758 14560.380737 14153.293367 13072.216637 11823.433964 12797.272587 11609.697749
</DataArray>
<DataArray type="Float64" Name="Velocity" NumberOfComponents="3" format="ascii">