<VTKFile type="PolyData">
<PolyData>
<Piece NumberOfPoints="2177" NumberOfVerts="2177" NumberOfLines="0" NumberOfStrips="0" NumberOfPolys="0">
<PointData>
<DataArray type="Float64" Name="Pressure" format="ascii">
 19462.831437 19525.663966 19644.140254 19802.204206 19869.386398 19660.229700 19159.215190 18443.479498 17584.149643 16552.720484 15312.151563 13944.427908 12517.022578 10973.828646 9240.753305 7272.827697 5056.674392 2941.836037 1470.164955 677.085904 56.475881 -781.220450 -1817.370010 -2768.223053 -3430.105153 -3801.539096 -3965.253895 -3992.452764 -3926.586878 -3796.015313 -3623.257671 -3424.879777 -3212.147155 -2992.839453 -2772.501998 -2555.168832 -2343.784318 -2140.467982 -1946.694218 -1763.423947 -1591.207782 -1430.270776 -1280.583650 -1141.922888 -1013.921055 -896.108601 -787.949353 -688.874837 -598.331911 -515.886261 -441.502974 -376.183218 -322.706377 -284.347813 -261.452092 -251.640844 19637.849609 19676.862014 19867.395623 20330.695334 20611.687280 20224.617797 19594.712852 18801.207949 17935.056760 17056.490581 15941.189156 14660.115089 13376.085184 11898.608890 10103.074996 8099.419233 5547.031539 2837.791086 1533.688604 1509.313679 1336.753755 483.695710 -986.324804 -2409.078184 -3313.565022 -3766.956072 -3957.265757 -3995.222143 -3932.351411 -3799.052007 -3624.363039 -3425.197683 -3212.241849 -2992.903952 -2772.590897 -2555.290851 -2343.934733 -2140.639146 -1946.878741 -1763.615528 -1591.401330 -1430.462305 -1280.770095 -1142.101843 -1014.090262 -896.264649 -788.083754 -688.961561 -598.287689 -515.449893 -439.897021 -371.870294 -314.413356 -275.723188 -254.687306 -246.390659 19888.509921 19841.968990 20425.464807 21697.945030 23432.419603 21202.031690 20541.733237 19545.468900 17660.031039 17561.081824 16734.693071 15760.950882 14734.522539 14024.502691 11727.461876 10387.450341 6249.705179 1728.359058 1427.565301 3186.343293 4382.156309 3099.857489 794.349044 -1800.379786 -3151.709513 -3724.187904 -3948.738736 -4003.407842 -3949.170259 -3805.347599 -3626.391225 -3425.934908 -3212.496810 -2992.954302 -2772.539451 -2555.180974 -2343.788234 -2140.469238 -1946.694618 -1763.424067 -1591.207797 -1430.270703 -1280.583371 -1141.921961 -1013.918009 -896.098605 -787.916566 -688.767314 -597.979443 -514.729430 -437.742240 -363.187608 -294.764975 -258.991983 -243.107201 -237.638243 -254.910822 -238.534312 -231.669182 -218.423186 -212.582805 -209.191735 -183.278986 -181.874086 -180.553120 -155.142584 -154.766547 -154.304489 -131.227179 -131.149171 -130.971108 -110.692982 -110.699500 -110.614677 -93.043872 -93.072440 -93.019931 -77.912178 -77.944213 -77.904859 -64.986669 -65.016812 -64.984432 -53.991185 -54.018085 -53.990501 -44.677571 -44.701087 -44.677362 -36.822813 -36.843160 -36.822749 -30.227310 -30.244795 -30.227290 -24.713398 -24.728340 -24.713392 -20.123876 -20.136578 -20.123875 -16.320484 -16.331227 -16.320483 -13.182348 -13.191391 -13.182348 -10.604424 -10.611997 -10.604423 -8.495952 -8.502265 -8.495952 -6.778972 -6.784208 -6.778972 -5.386895 -5.391217 -5.386895 -4.263163 -4.266715 -4.263163 -3.360007 -3.362911 -3.360007 -2.637297 -2.639660 -2.637297 -2.061505 -2.063419 -2.061505 -1.604767 -1.606309 -1.604767 -1.244049 -1.245287 -1.244049 -0.960410 -0.961399 -0.960410 -0.738356 -0.739142 -0.738356 -0.565276 -0.565898 -0.565276 -0.430960 -0.431449 -0.430960 -0.327183 -0.327567 -0.327183 -0.247354 -0.247653 -0.247354 -0.186216 -0.186449 -0.186216 -0.139599 -0.139779 -0.139599 -0.104210 -0.104349 -0.104210 -0.077464 -0.077570 -0.077464 -0.057338 -0.057419 -0.057338 -0.042262 -0.042323 -0.042262 -0.031017 -0.031063 -0.031017 -0.022667 -0.022702 -0.022667 -0.016495 -0.016521 -0.016495 -0.011952 -0.011971 -0.011952 -0.008623 -0.008637 -0.008623 -0.006195 -0.006205 -0.006195 -0.004431 -0.004439 -0.004431 -0.003155 -0.003161 -0.003155 -0.002236 -0.002240 -0.002236 -0.001576 -0.001579 -0.001576 -0.001103 -0.001105 -0.001103 -0.000763 -0.000765 -0.000763 -0.000516 -0.000517 -0.000516 -0.000331 -0.000332 -0.000331 -0.000182 -0.000183 -0.000182 -0.000048 -0.000048 -0.000048 0.000096 0.000097 0.000096 0.000277 0.000278 0.000277 0.000529 0.000531 0.000529 0.000904 0.000907 0.000904 0.001473 0.001477 0.001473 0.002340 0.002347 0.002340 0.003655 0.003666 0.003655 0.005635 0.005650 0.005635 0.008584 0.008606 0.008584 0.012932 0.012963 0.012932 0.019268 0.019313 0.019268 0.028397 0.028458 0.028397 0.041394 0.041478 0.041394 0.059676 0.059789 0.059676 0.085076 0.085227 0.085076 0.119922 0.120120 0.119922 0.167103 0.167358 0.167103 0.230120 0.230442 0.230120 0.313097 0.313496 0.313097 0.420726 0.421209 0.420726 0.558111 0.558680 0.558111 0.730463 0.731114 0.730463 0.942608 0.943323 0.942608 1.198216 1.198961 1.198216 1.498707 1.499421 1.498707 1.841732 1.842326 1.841732 2.219173 2.219512 2.219173 2.614556 2.614457 2.614556 2.999846 2.999060 2.999846 3.331552 3.329756 3.331552 3.546144 3.542931 3.546145 3.554807 3.549673 3.554811 3.237608 3.229950 3.237620 2.437218 2.426333 2.437258 0.952395 0.937494 0.952525 -1.468517 -1.488253 -1.468091 -5.133775 -5.159019 -5.132381 -10.413873 -10.444600 -10.409307 -17.746761 -17.780475 -17.731811 -27.644066 -27.670026 -27.595119 -40.704150 -40.684309 -40.543934 -57.653043 -57.457494 -57.128657 -79.482591 -78.663764 -77.768024 -108.074752 -104.910080 -102.440408 -146.295283 -134.345395 -128.429161 -169.914861 -149.590580 -140.271585 10449.636660 10338.050711 10304.319692 9932.405066 9186.164488 9511.724918 8086.937082 7354.377099 7352.149105 7194.712888 4834.747880 430.816553 -972.025146 -617.630975 -327.642519 -233.245654 -290.810142 -465.177653 -716.523418 -1010.153934 -1319.669623 -1626.407878 -1917.553328 -2184.234426 -2420.155985 -2620.842905 -2783.321987 -2906.011236 -2988.643938 -3032.145028 -3038.447961 -3010.276478 -2950.923453 -2864.051153 -2753.524667 -2623.279438 -2477.217529 -2319.125191 -2152.605277 -1981.020326 -1807.444515 -1634.624398 -1464.949215 -1300.431664 -1142.699558 -992.997790 -852.198162 -720.809680 -598.967165 -486.322224 -381.658224 -279.626984 -194.798752 -159.865761 -144.712578 -138.652618 10439.367858 10371.531121 10165.481567 9598.552869 9011.192056 9033.729042 8021.544654 7114.144848 6286.541166 5312.189814 3805.588217 1598.809888 281.114984 -132.091776 -166.001499 -176.996492 -272.302286 -459.503918 -714.901896 -1009.653541 -1319.383978 -1626.087376 -1917.145378 -2183.740216 -2419.590757 -2620.226520 -2782.676386 -2905.358629 -2988.004974 -3031.537338 -3037.885381 -3009.768948 -2950.477380 -2863.670000 -2753.209552 -2623.029652 -2477.030915 -2318.998424 -2152.534063 -1980.999585 -1807.468549 -1634.687088 -1465.044254 -1300.552912 -1142.841748 -993.158431 -852.383383 -721.053159 -599.392704 -487.361157 -384.750756 -291.822419 -215.500119 -172.378250 -151.474915 -143.261824 10399.724861 10400.869204 10356.505934 10111.872920 9594.586398 8890.384214 7897.997192 6897.175697 5924.085150 4788.862952 3371.786741 1853.752098 732.477765 177.399155 -22.966194 -120.301140 -250.975984 -451.620014 -712.008225 -1008.664430 -1319.179254 -1626.246354 -1917.500118 -2184.216911 -2420.150221 -2620.841003 -2783.321356 -2906.011024 -2988.643866 -3032.145003 -3038.447952 -3010.276475 -2950.923452 -2864.051153 -2753.524667 -2623.279438 -2477.217529 -2319.125192 -2152.605281 -1981.020338 -1807.444554 -1634.624525 -1464.949630 -1300.433031 -1142.704050 -993.012553 -852.246659 -720.968951 -599.489904 -488.040644 -387.232859 -299.286019 -229.256905 -182.779144 -157.253697 -146.824784 20025.015203 19877.179084 20812.788832 22386.906268 26340.436895 22293.939110 22221.878960 21215.065892 18195.419774 18297.102625 17304.998109 16142.335986 15303.796702 16535.535495 12971.687285 12810.740375 8513.399058 3153.825714 3377.634654 5316.504574 7403.118699 7056.986877 3754.337201 -1559.114901 -3107.267558 -3715.534111 -3948.332332 -4009.557383 20491.476169 19244.621616 19451.147795 22629.714931 25093.742520 26020.254216 26649.966970 23830.239017 23967.065611 24901.683313 24501.541791 23218.447122 24369.123257 23440.074969 21423.902969 19474.607563 24332.155024 24820.407387 24506.854265 25247.183389 24789.915756 23995.749095 24573.285655 25993.242553 26831.983875 21481.037981 13142.423420 2734.858995 21550.060303 19391.918741 18821.690142 26262.157276 25622.705266 19414.271471 24280.356983 20224.259452 24410.077315 16366.867763 21476.118603 22881.737497 21697.045090 24349.347667 25013.889876 26519.110409 23664.100396 14441.837310 24200.650935 20782.735490 26935.252157 21807.380403 22121.221910 19481.678745 18326.785447 12954.979818 18119.588851 13063.341990 22911.025355 23175.043037 23357.446023 20042.114535 19762.123921 22128.439220 17608.026604 16470.675232 26141.111781 22804.892652 25703.934315 23622.801291 22341.473126 17657.621251 25029.811900 12950.295743 16769.450741 12273.799977 23189.894530 25501.659183 19050.300400 23777.292111 24390.747391 16879.383413 19433.757184 20518.264919 17202.877674 4722.264630 23845.060469 25981.414440 26206.229499 21237.622658 21125.497748 20882.068322 25875.009976 23507.543716 25556.936412 23715.963458 23891.696271 13922.853746 15807.846174 16796.081993 18448.835344 19361.292197 20457.232295 23601.456954 21493.686253 22681.488465 15700.426064 24392.680808 16272.639480 16510.934755 14165.654811 12587.956086 17220.719039 4170.518899 24226.559795 26045.819907 27171.523526 23591.584342 20268.623713 15664.337898 21933.836694 21126.507363 23659.049451 16042.840899 12590.716746 20326.948245 14727.931042 14486.669525 13853.779109 17698.113086 12951.200287 6039.265046 10167.578349 10144.297355 16868.534483 11437.326584 25562.269986 17717.142935 18051.936958 14974.822364 9911.875152 13595.261402 24399.816719 24755.723734 25004.850333 21010.992622 23033.914030 14037.631138 23107.886685 10959.753202 19871.050647 18335.987402 21045.552073 22908.930105 17530.710283 12437.822770 14158.802541 13937.439456 15635.346016 9973.355503 18968.017121 18003.022674 20150.140324 12702.029625 5009.330499 13287.708892 9150.991226 11144.562716 10698.490169 2035.255083 24726.084816 25382.598052 25740.607696 18536.743182 22618.986789 24792.494757 20972.108416 12565.068778 22133.226369 8823.963215 11333.222923 13463.497844 19121.622130 18325.154538 24076.907125 16185.580508 8640.981151 18801.232022 17032.684687 9552.569099 10378.077454 17947.727593 7356.314692 17280.193136 19657.273432 13808.072523 9415.545130 9927.391496 24865.700497 25984.717240 26390.343695 22354.441285 19219.489083 23862.935356 19959.250962 20913.571756 25950.811476 23590.697042 22791.609291 22829.428306 20078.207612 12920.106381 11392.201523 23116.696238 15597.371735 15766.623838 7884.933552 7487.011387 13253.713254 11452.736110 15262.752141 11408.700369 13819.768201 1025.299743 14315.111555 8722.403060 24539.640742 25799.680475 26150.380834 22980.047904 25035.028154 23540.595005 22317.787932 19515.277789 17050.875917 15934.321109 12564.089832 10164.045967 16690.092481 19833.887664 8793.503468 11571.485982 7674.008122 16278.936180 9453.289755 20098.257864 9725.401027 6851.807165 8462.016128 14590.317751 8923.178674 7864.797670 6140.266799 12987.667032 24111.036768 25677.418611 27612.668593 25032.831533 23968.658720 24132.352810 16308.450426 24236.968495 8688.912073 24725.461581 11127.239799 19854.741119 9423.862413 8711.480105 14790.554405 12002.790719 10302.199695 12235.581399 12484.672570 13579.303955 12677.521391 8510.220731 10559.993472 12253.590133 5940.121048 10937.498142 13082.085634 10489.632302 23892.080683 25238.570200 26344.870239 23339.369526 20920.913758 23604.684431 19443.525410 21869.889348 15790.536665 14500.720947 11648.577360 15783.615818 14702.662276 17668.386683 11535.668996 12236.188941 16288.763496 5922.245021 4582.732178 6940.471467 13935.193023 16307.981096 8575.428019 14260.517222 7662.763847 11075.415395 7703.118080 8463.517671 24036.363034 24845.426131 24351.413923 24261.420411 23179.580727 17195.759903 18001.976126 19013.089742 14559.992391 19564.508438 15932.460133 16310.098469 15222.069921 6422.114601 13179.378303 4592.843784 14234.151379 9147.469798 8640.561157 18935.614987 11563.586410 6932.786384 10975.556822 12958.965879 8907.836984 4623.722924 7596.139161 10930.134421 24357.752948 24268.325198 23607.120938 21211.275906 20553.496824 23648.400810 22612.227927 22658.087022 16225.593801 22525.683752 12649.484450 7279.275336 6001.322574 7094.846444 6006.808864 9167.749562 11280.712806 6192.355670 7620.807793 4665.260357 4545.913680 7955.065037 7460.677867 16322.719458 7218.685098 4905.716272 10263.358409 9085.992689 24590.141265 24743.053798 23585.177989 23172.656635 22332.827281 21369.096092 19855.261765 21589.124904 20561.473761 16438.433045 9780.727815 11244.229993 6794.677172 4955.910186 2625.515499 3721.917060 3421.559742 2298.017365 2400.218164 4411.405250 6263.035493 1986.794522 4425.548821 4447.438537 8236.006275 4530.787649 8672.400190 9241.752306 24496.794150 25626.051706 26448.810874 20198.960292 24866.549387 18640.525890 21411.542353 18772.689561 15137.141171 13894.276305 11270.724162 2088.640497 3582.877462 24026.039254 24591.192918 24903.882838 20043.771587 19996.389596 21234.186661 20638.607028 18207.436837 19455.103592 7795.555550 2101.639633 5137.893266 3478.203876 23589.232951 23870.946136 22666.296167 20256.422500 18917.196090 14720.101586 8855.781768 16736.863615 10214.420990 7130.467631 7087.400043 10786.751510 7624.642289 23348.479688 24161.072170 23913.646913 19766.709087 18301.172227 19902.904960 15319.086217 14499.300743 5469.710097 8980.865391 6605.014156 3905.810371 4701.964008 22872.861014 23333.025655 22284.155667 20722.542476 18849.426255 17883.348331 13991.496385 9949.147268 7347.685410 8573.631605 13139.560825 4510.152459 3610.892104 22425.558171 23328.297144 24876.855969 23455.886712 23684.101937 18333.410205 12839.954591 16066.143390 5194.910613 3374.466405 10250.676072 3515.857827 5565.404706 22159.023377 22536.700511 22990.245468 22192.410440 19302.081502 20764.670851 13017.218862 10761.318754 10080.683759 13266.873835 10648.636469 3669.366722 2848.867087 21976.491586 20802.042374 19005.582417 21063.924621 19007.505920 5310.619937 9719.542418 7297.979928 6014.277216 12676.630984 6630.443473 5468.794004 1709.428917 21962.632233 19658.348432 17405.159511 17422.649289 16664.640000 7243.799759 13685.878355 12976.499924 10886.535049 8081.356101 4115.045370 3173.072305 3391.656836 22135.316746 20356.805772 17746.538374 24502.432376 17954.628291 16742.201610 19323.313489 11247.759891 11253.766059 9113.023794 8569.596533 6685.108941 13306.722329 22339.084197 21657.507580 20041.376037 23166.038700 16242.635144 16859.694334 11540.975991 10461.123025 9012.423621 14844.597027 6450.133206 6586.470412 4754.656470 22345.347544 22362.089103 21897.787563 20786.152883 21372.892727 15208.886889 14522.550059 13246.764802 9589.192483 9507.494133 10987.159614 3045.535879 4011.164958 22073.293150 22732.848267 23398.623876 20452.812445 15671.484640 18115.840628 15091.633583 13966.998605 3758.585814 12002.776527 12221.026830 5166.818411 2639.082450 21648.645043 22713.414134 23795.706184 18024.403182 15252.456180 15095.890129 18382.306931 15762.174425 8454.815811 16869.586388 5611.558416 6229.522001 3010.972738 21204.193425 22135.508537 22104.077963 21206.071721 17613.490147 16234.801125 20166.179814 20170.353950 11194.115305 16089.625936 3716.902474 5525.092813 1320.594778 20962.369038 21312.014952 21194.027042 17742.643419 16931.504151 21041.925078 17882.528775 18722.102725 14538.773874 14567.750389 7183.589902 1716.536637 2392.250233 20928.005306 21503.943827 21633.717259 14578.595458 17003.697657 18322.856023 13655.371331 17077.726296 7020.511080 9045.728013 5210.100631 3320.832961 3351.986952 20917.382622 21561.613854 21478.395235 19090.009204 19367.813842 16496.809680 14406.120140 12012.493836 9622.067920 17772.342582 5445.789902 2878.412559 4427.992196 20852.519485 20441.013703 19671.181733 19244.900510 20156.208114 19138.631701 14636.191684 12051.905409 13410.872362 4771.074927 7850.654301 9074.580971 3916.126059 20802.276325 20286.789588 19262.630110 18255.413570 19978.225972 18848.639957 18521.015271 7517.583283 9730.811431 11499.712851 12363.653271 5373.424629 3181.466924 20753.787473 20473.674640 20224.682505 20784.050041 18740.597632 19999.030008 17173.199495 8827.928583 15263.129378 8525.653409 3038.169141 2445.391035 3931.792295 20635.948121 19892.289534 19061.958935 20523.529184 21286.703489 18409.214681 10661.259479 10484.244461 10222.774488 6356.107650 7723.061261 5171.316085 1372.928275 20453.231386 19544.717762 18980.138312 19955.179589 19691.673416 17869.507271 15326.078154 8906.469063 13500.559200 7088.242901 4816.015702 4441.870586 4163.289006 20301.515438 20635.449564 21443.793115 20124.702522 20438.770970 13007.029877 16164.982805 11145.488212 5592.085277 5877.675668 3079.643895 4069.282512 4402.109603 20042.145429 20456.511287 20792.199960 19440.474888 19854.349608 19210.775495 10388.081006 13584.516928 7570.352228 6158.972843 7090.064481 5661.531962 2924.811644 19616.345382 20056.292591 21172.663704 19559.772291 20400.993096 9952.202631 12735.996082 11978.956747 13584.982224 10144.476871 5522.400187 6736.482700 3844.605513 19291.153464 19715.799232 21508.586131 22409.639578 21104.211973 18579.987500 6532.937603 18710.645330 8705.557916 12522.910470 6070.146607 3598.133938 3868.996769 19350.162479 20610.569308 22521.909971 20966.249931 17188.184138 18508.622237 7924.165319 14272.705007 7334.765080 8973.100540 8202.972160 6003.510298 2451.188085 19492.338736 19743.547407 19366.763691 17633.600549 18204.746225 10561.228253 17331.832163 14319.436132 9464.284002 7864.379910 4363.437235 2927.412173 1910.908074 19570.781090 19586.541720 18356.405597 17173.367677 17243.361533 17389.232031 17309.319190 16177.603282 6568.745029 7913.043971 4001.423840 6073.694820 2247.314448 19434.516949 20400.484103 20660.519831 20197.884900 17230.465244 9792.526253 11075.419997 17655.896702 17027.112758 9024.353201 9031.767492 4964.191050 1441.686604 18946.142702 19507.318802 20082.808476 16867.914087 15788.424158 10048.556861 15776.942259 15249.722586 8109.721134 4430.495480 5076.120420 6485.592948 6135.062109 18551.021111 18576.216144 18410.707329 19411.011988 17686.265936 16836.915018 12272.600154 13082.912973 10435.501507 4555.927949 4545.122408 7843.864924 3680.135270 18438.860515 18354.204910 17980.741442 19118.134833 16927.600853 15767.398010 13059.033434 13037.980275 10218.360067 10705.861080 9809.270347 3753.238495 3415.354438 18430.161762 18526.423032 18064.612554 17113.595196 18441.013118 12564.548411 14952.848918 13195.111129 8760.586919 11771.078132 10447.221797 3960.160960 2506.594908 18284.436724 18508.709130 17950.244499 19391.436526 15686.763951 16447.847433 17192.686411 10915.604111 7048.819145 5507.270479 7144.743204 4515.977156 3405.160539 17810.263185 17845.017861 17347.892024 19341.505970 19222.068031 15295.876722 14128.740548 17571.502992 9398.946230 7272.358391 8150.547524 6156.278562 3810.622149 17135.031583 16829.729453 16664.207690 16928.323760 17516.875289 15161.229955 17433.979287 8732.593778 6058.808616 7148.820328 3258.744529 6803.067967 1871.550997 16572.677498 16481.965355 17022.374877 19935.263907 18675.811448 15053.978007 8479.826755 7090.211947 6165.423572 9632.097285 4532.829144 4508.509929 2081.566228 16401.356124 16508.563952 16762.821958 16898.003930 16821.297146 18387.931706 13729.138486 6643.505334 11179.783225 4096.365018 4063.724034 2089.801709 2588.008948 16519.781277 15990.205970 15218.661843 18765.816996 17487.139193 14791.921532 14045.738965 14082.704609 10356.841148 6204.068801 5014.545317 4874.580217 5106.630054 16488.200612 15384.451839 13575.751252 19350.254691 19207.532773 15016.267020 12405.284404 11318.805597 13008.304703 8259.621102 9005.716651 3291.315234 6673.468186 16288.210146 16507.814645 16162.189668 18342.725686 20071.271488 17894.318366 14683.991099 13853.956667 11676.437371 3168.875610 4393.995008 8639.613404 5349.507426 16123.068103 16716.772538 17185.069184 17704.878476 19348.498839 17920.727749 11763.130226 9019.344959 8026.427654 9484.512735 5029.502426 2752.296009 2233.963557 16091.946769 16093.241114 15335.134106 17601.333698 17988.585335 14156.906658 8711.367519 11461.167091 8907.494907 5153.815597 2096.965905 1854.082145 2979.718419 16124.822619 16495.459442 16506.586290 17779.568218 18690.688644 18267.009601 10717.486252 12346.811983 10134.274262 7936.481193 1928.845075 2958.978347 3321.829470 15804.520756 15952.737860 15810.965679 16184.809879 14811.889767 11170.768158 7394.050890 10289.018976 9624.082842 7221.220425 6493.146415 3362.673750 1287.769163 15354.667070 15411.157247 14955.483448 17941.243999 15266.782714 11762.844676 12232.483200 12692.252791 7238.226768 4274.597829 2796.390021 6526.326665 1944.635630 15283.805956 15458.529837 16006.393696 17970.149229 16458.507007 14807.214099 10270.788260 8270.145056 8656.813892 8779.579652 4086.464948 1827.969689 4416.609717 15295.646990 14393.481905 13801.037566 16757.730705 18277.585972 13314.228859 13068.845490 10509.843345 8795.322554 5515.442034 4126.311819 4933.875036 6731.746351 15244.642809 14138.191194 13167.768680 15953.309880 15762.567901 13894.571716 12254.510202 10698.262812 3673.416037 5548.977149 5052.000785 3389.558534 7312.760263 15305.560449 15020.443297 14505.867139 15224.253829 14305.722773 14927.740872 11558.077829 9050.621453 10847.507266 7833.147330 5612.769975 2061.199945 4700.081329 15126.475243 13808.817840 12440.586189 14550.546210 15932.048832 15133.109470 12471.270712 12056.297352 10658.388875 4889.629789 6735.927128 7669.740286 3704.369127 14552.852282 12634.752301 10570.933865 12270.444870 15985.972913 16030.686436 5367.415524 10561.719381 7048.147789 3749.644323 8281.258998 5217.472473 6419.971942 13949.157639 13232.893777 12560.810885 16330.526772 14342.382335 17276.333036 10012.592937 9789.876953 8345.323543 5675.228237 7901.295733 2666.727839 6082.158821 13526.414777 13606.400214 14467.197823 12357.041335 16440.215648 16026.568696 11686.351243 9597.998332 5733.991295 5036.015929 848.251756 10138.797254 989.739260 13222.312740 13884.324454 15191.955728 15010.136609 13890.556325 11729.793919 10696.119446 12404.439116 7009.194488 7069.972085 5392.909688 8607.087932 5454.317014 13097.389606 14864.832258 17623.243091 15690.373955 15133.211153 13124.194728 11107.032105 9044.488460 7402.626684 4639.152128 4441.276307 6577.997259 5980.859150 12893.066481 13432.946656 13612.441973 11927.743394 13582.579746 13637.830334 6921.076440 8472.888275 4197.788128 4506.345393 3781.042228 10549.702282 5874.469546 12756.313968 11011.861766 9498.675481 13745.402023 14919.836363 12305.512051 10165.681825 7642.469733 9569.734596 8762.198235 7516.110520 8815.759565 6809.347530 13179.898435 11899.563492 11178.567505 14336.922211 13323.767615 10193.247887 10355.884948 11499.565475 9656.157360 9747.018754 2685.821598 5455.586833 1352.425857 13681.903259 13933.304570 14609.343300 14414.824386 12529.494439 12550.013915 10463.167710 5539.340228 9064.539287 8277.651282 7705.678354 4241.171497 1766.732155 13576.484164 14310.778436 14892.670237 13597.717902 13517.544761 12766.464755 11961.727295 8950.531286 10945.630842 6645.375814 5318.757950 2950.271106 9294.189837 13233.571609 14249.583477 15264.046578 13783.970584 12076.763914 10140.587843 10156.961174 10168.649241 7338.021833 10903.094676 7552.905833 5934.600433 7943.151145 13038.129604 13398.600891 13544.075606 14445.358305 12549.139268 10617.117408 12465.940432 11995.311470 7971.208330 12280.928307 6502.153635 5531.817822 8165.103551 13022.601329 12625.176288 11896.736163 14564.545768 11452.872183 16100.470283 9338.464994 11967.179302 9991.161113 12424.386443 9072.519566 7701.701467 5403.738763 12970.510819 12472.420995 12207.391008 12497.538330 10887.184036 12001.004763 9699.717332 10395.506619 10661.891981 7873.409766 7365.511457 7484.216186 6335.346559 12631.092692 12507.947418 12929.159509 14034.906801 12930.252415 10954.112089 14353.973221 13215.341217 7863.668781 9866.880213 9338.001618 7564.421740 1733.183171 12167.601640 12804.819648 14266.377860 13893.674121 11429.240685 11868.574538 11932.070095 10768.121319 9426.385350 11148.128486 6527.450108 8697.040500 8252.738288 11728.078448 11165.059007 11467.821552 14521.385581 12728.170836 12228.107913 10529.095043 10423.706824 11442.054093 11269.104771 5372.949431 12131.593817 5761.854000 11570.465027 10726.495068 10809.280065 12361.626563 10437.799152 11436.362140 10699.172536 10560.922079 10716.885101 11918.477559 4588.468235 4967.944773 3708.557880 11370.049593 10361.204151 10007.000395 12329.108240 11650.101778 11910.450399 12079.958518 11437.786504 10098.696930 9969.673603 8595.043718 8238.856347 5958.313489 10977.520536 9843.294184 8736.817713 10548.225079 12150.720463 10310.393600 9483.112972 9055.946635 9119.316197 5624.734442 7191.867042 9100.644295 2661.399094 10726.978044 10181.279845 10201.585470 10793.800399 13783.278136 12116.242829 6728.829237 9033.136316 6137.608662 5947.607503 11860.181449 10170.334907 6484.400025 10690.807156 10092.825290 9912.616122 14950.760512 10526.024352 10569.367745 10977.329541 8649.528067 7771.572809 7505.550192 8046.458886 6430.363635 9502.361379 10763.607976 11743.276911 13654.208017 11229.757970 11301.031353 8085.483180 7571.986197 9848.867195 7258.368552 11158.880911 4445.228329 2273.269777 4847.905059 10631.460496 11223.429642 12470.396248 11031.403068 10629.223706 11364.600715 10014.115127 6105.882646 9540.135599 7280.477844 8094.914278 3421.998090 2140.680219 10663.727891 9855.421525 9944.702560 11425.540953 11679.358803 13631.572453 9044.932062 10765.375305 12531.668434 9710.205925 10266.677683 4371.067400 10558.776515 10941.047905 10622.364707 10576.812592 10344.127027 10633.162925 8434.131804 9874.619963 9858.765327 10051.896230 8153.527372 7685.793080 3498.307334 3855.188708 10938.934492 11037.436846 11991.532325 13668.199978 13107.888164 12665.818273 13237.874653 7797.136321 10981.629563 3368.848964 10524.648393 9916.029155 6027.470126 10811.679314 10681.971600 11503.828044 9258.140484 10681.290629 9083.765431 11815.341613 8997.539686 9712.956337 12925.864979 10479.536128 9408.600883 9160.195943 10799.171236 11044.536802 11292.771098 13310.351982 10338.737243 13485.398310 13162.656208 11260.983200 9171.876794 10061.841435 8918.709616 7253.909087 3461.180508 10698.298708 10790.176754 10273.724064 11007.009639 8540.823091 9676.802964 12150.825700 10078.951249 11056.085666 11508.492623 11934.474840 12801.448915 2171.157905 10550.929281 10704.849250 10614.557761 10773.308023 9917.001075 13350.992113 12784.258961 13884.316953 12391.747280 11111.196833 10549.551160 9750.651030 9851.016337 10473.823053 10596.171678 11149.365949 10044.413078 10546.827744 11017.080027 10844.614426 10697.766778 12036.985215 12279.579556 9214.643713 11852.069436 12347.997590 10449.636660 10338.050711 10304.319692 11251.802490 12349.533720 12401.968338 12504.918762 12896.201096 13320.891516 12808.071030 10897.836721 11334.192594 11147.945097
</DataArray>
<DataArray type="Float64" Name="Velocity" NumberOfComponents="3" format="ascii">