<VTKFile type="PolyData">
<PolyData>
<Piece NumberOfPoints="2177" NumberOfVerts="2177" NumberOfLines="0" NumberOfStrips="0" NumberOfPolys="0">
<PointData>
<DataArray type="Float64" Name="Pressure" format="ascii">
 17249.168600 17074.162448 16729.465560 16170.473159 15420.324999 14575.140552 13659.835355 12615.526392 11406.481571 10051.436265 8545.927321 6871.311175 5056.147263 3127.047059 1210.704915 -318.309527 -1271.593399 -1766.787974 -1985.702531 -2046.578399 -2014.938719 -1930.572638 -1820.947541 -1706.574980 -1602.709833 -1519.778071 -1463.629182 -1435.983624 -1435.144395 -1456.727875 -1494.180357 -1540.056005 -1587.208714 -1629.452400 -1661.870956 -1680.921452 -1684.406668 -1671.362076 -1641.888786 -1596.955183 -1538.184770 -1467.644815 -1387.648332 -1300.579747 -1208.751843 -1114.298523 -1019.105591 -924.782343 -832.686338 -744.048094 -660.341979 -584.126062 -520.040191 -473.249356 -445.040089 -432.928868 17092.469340 17022.832277 16779.976176 16076.461231 15186.007810 14435.084006 13665.386113 12573.746917 11113.893541 9572.010043 8066.763232 6453.651545 4715.060645 2707.935333 428.732995 -1129.383554 -1781.200845 -2019.428652 -2103.182640 -2099.761342 -2038.764107 -1941.401219 -1826.242213 -1709.620567 -1604.862453 -1521.531865 -1465.099952 -1437.076742 -1435.508112 -1456.832193 -1494.209877 -1540.024642 -1587.104220 -1629.279649 -1661.645359 -1680.662294 -1684.133197 -1671.091494 -1641.635262 -1596.729425 -1537.993961 -1467.492801 -1387.535977 -1300.505327 -1208.711186 -1114.284110 -1019.102190 -924.751553 -832.516076 -743.398307 -658.212223 -578.522812 -509.229408 -461.727580 -435.717742 -425.516004 16889.736326 17184.064807 17414.944460 15212.365946 14104.982113 13982.168101 13910.819728 12921.875637 10479.588549 8415.846443 7184.615187 5742.593093 4233.176980 2550.791642 -1499.298887 -2685.460687 -2510.324274 -2334.983162 -2242.053544 -2161.514288 -2066.295642 -1953.877258 -1832.271158 -1712.988446 -1607.152477 -1523.357338 -1466.775223 -1438.639105 -1435.054340 -1456.254148 -1493.955153 -1539.957440 -1587.168955 -1629.437084 -1661.865242 -1680.919370 -1684.405923 -1671.361812 -1641.888692 -1596.955141 -1538.184724 -1467.644697 -1387.647956 -1300.578523 -1208.747842 -1114.285453 -1019.062892 -924.642867 -832.230893 -742.559127 -655.518663 -567.553975 -483.982582 -439.478783 -419.705507 -413.118174 -433.303725 -412.730176 -404.310402 -383.725284 -376.313871 -372.142442 -333.898080 -332.114085 -330.462344 -292.349114 -291.866605 -291.288069 -255.755071 -255.652702 -255.429462 -223.245795 -223.253140 -223.145800 -194.342965 -194.380349 -194.312266 -168.699806 -168.743176 -168.690383 -146.015741 -146.057908 -146.012849 -126.013514 -126.052452 -126.012626 -108.433476 -108.468753 -108.433204 -93.032590 -93.064264 -93.032506 -79.584464 -79.612747 -79.584438 -67.879432 -67.904576 -67.879424 -57.724411 -57.746678 -57.724409 -48.942546 -48.962191 -48.942545 -41.372661 -41.389930 -41.372661 -34.868582 -34.883707 -34.868582 -29.298351 -29.311551 -29.298351 -24.543382 -24.554860 -24.543382 -20.497573 -20.507517 -20.497573 -17.066402 -17.074986 -17.066402 -14.166024 -14.173408 -14.166024 -11.722376 -11.728705 -11.722376 -9.670313 -9.675717 -9.670313 -7.952768 -7.957367 -7.952768 -6.519963 -6.523862 -6.519963 -5.328650 -5.331943 -5.328650 -4.341411 -4.344183 -4.341411 -3.526006 -3.528331 -3.526006 -2.854766 -2.856709 -2.854766 -2.304040 -2.305658 -2.304040 -1.853698 -1.855040 -1.853698 -1.486669 -1.487779 -1.486669 -1.188537 -1.189451 -1.188537 -0.947177 -0.947927 -0.947177 -0.752427 -0.753041 -0.752427 -0.595809 -0.596309 -0.595809 -0.470273 -0.470679 -0.470273 -0.369979 -0.370308 -0.369979 -0.290111 -0.290375 -0.290111 -0.226705 -0.226917 -0.226705 -0.176517 -0.176687 -0.176517 -0.136896 -0.137030 -0.136896 -0.105680 -0.105786 -0.105680 -0.081113 -0.081197 -0.081113 -0.061769 -0.061834 -0.061769 -0.046484 -0.046534 -0.046484 -0.034311 -0.034348 -0.034311 -0.024467 -0.024494 -0.024467 -0.016301 -0.016319 -0.016301 -0.009259 -0.009269 -0.009259 -0.002853 -0.002856 -0.002853 0.003354 0.003357 0.003354 0.009774 0.009784 0.009774 0.016809 0.016825 0.016809 0.024856 0.024879 0.024856 0.034322 0.034352 0.034322 0.045617 0.045653 0.045617 0.059148 0.059191 0.059148 0.075302 0.075351 0.075302 0.094414 0.094467 0.094414 0.116715 0.116769 0.116715 0.142259 0.142310 0.142259 0.170824 0.170865 0.170824 0.201766 0.201788 0.201766 0.233842 0.233831 0.233842 0.264963 0.264901 0.264963 0.291888 0.291751 0.291888 0.309842 0.309597 0.309842 0.312035 0.311641 0.312035 0.289085 0.288488 0.289085 0.228319 0.227453 0.228319 0.112947 0.111730 0.112947 -0.078897 -0.080564 -0.078897 -0.375265 -0.377502 -0.375265 -0.811646 -0.814597 -0.811646 -1.432367 -1.436200 -1.432367 -2.292131 -2.297040 -2.292131 -3.457662 -3.463871 -3.457662 -5.009459 -5.017222 -5.009459 -7.043595 -7.053195 -7.043595 -9.673527 -9.685274 -9.673527 -13.031848 -13.046082 -13.031848 -17.271923 -17.289007 -17.271923 -22.569301 -22.589615 -22.569300 -29.122821 -29.146758 -29.122817 -37.155301 -37.183255 -37.155287 -46.913692 -46.946041 -46.913645 -58.668579 -58.705659 -58.668427 -72.712937 -72.754965 -72.712442 -89.360055 -89.406934 -89.358446 -108.940753 -108.991444 -108.935517 -131.800411 -131.850951 -131.783375 -158.297891 -158.334940 -158.242469 -188.813296 -188.792900 -188.633014 -223.788378 -223.564079 -223.201943 -263.875048 -262.946652 -261.969159 -310.665457 -307.079534 -304.440603 -366.062910 -352.638172 -346.422661 -397.073918 -374.838940 -364.866587 10072.083854 9947.042920 9758.764565 10871.734003 10932.402841 9946.342699 10099.033611 8757.725386 7824.510046 9194.614179 9406.898814 8822.450274 7290.969418 4057.086012 2116.868406 1212.649370 631.388141 197.061800 -158.009773 -463.828472 -734.950817 -978.566601 -1198.077220 -1394.915944 -1569.550876 -1722.051732 -1852.404845 -1960.678963 -2047.103755 -2112.099383 -2156.280487 -2180.447866 -2185.574659 -2172.789905 -2143.360323 -2098.670299 -2040.199934 -1969.501182 -1888.172431 -1797.832132 -1700.092288 -1596.532712 -1488.676954 -1377.970655 -1265.762848 -1153.290051 -1041.661329 -931.837320 -824.579854 -720.289185 -618.529962 -514.425025 -424.179677 -386.059326 -369.552882 -363.266359 9875.073934 9919.431183 9974.611713 9834.873077 9809.431684 9758.212119 9416.276562 8340.618896 7652.710785 7425.061948 6884.461115 6012.421834 4689.665452 3191.526310 1993.699200 1189.643589 627.702201 196.922763 -157.585038 -463.385530 -734.555701 -978.203928 -1197.727794 -1394.568339 -1569.200452 -1721.698157 -1852.050151 -1960.326296 -2046.756649 -2111.761380 -2155.954951 -2180.137899 -2185.283057 -2172.519127 -2143.112456 -2098.447028 -2040.002506 -1969.330385 -1888.028582 -1797.715084 -1700.001453 -1596.467118 -1488.635347 -1377.951748 -1265.765997 -1153.317323 -1041.724079 -931.977636 -824.941188 -721.360212 -621.929571 -527.953024 -447.979035 -401.745741 -379.184052 -370.493051 9647.354985 9712.620715 9776.215425 9772.350480 9800.613382 9632.706105 9034.931180 8181.650992 7366.892037 6686.499445 5955.893399 5057.821427 3972.480802 2845.068987 1887.402050 1163.059611 620.573357 194.631192 -158.567069 -463.958519 -734.981621 -978.573977 -1198.078996 -1394.916372 -1569.550979 -1722.051757 -1852.404851 -1960.678965 -2047.103755 -2112.099383 -2156.280487 -2180.447866 -2185.574659 -2172.789905 -2143.360323 -2098.670299 -2040.199934 -1969.501183 -1888.172436 -1797.832147 -1700.092334 -1596.532864 -1488.677449 -1377.972269 -1265.768114 -1153.307236 -1041.717411 -932.020321 -825.176785 -722.239670 -624.824682 -536.429676 -463.807991 -414.553613 -387.191568 -376.044069 16767.526623 17739.756513 18507.625558 13326.978267 12366.799529 12781.240196 13051.279054 12921.684983 9672.838999 6991.339878 6184.578248 5157.819471 3799.912657 2817.021361 -3786.855267 -4156.123134 -2760.134361 -2428.231473 -2281.148134 -2178.888165 -2074.128370 -1957.431145 -1833.897176 -1713.741567 -1607.504085 -1523.524761 -1466.981848 -1439.011791 16420.733787 18102.505128 19217.760749 13217.310690 15377.529999 16796.478006 18716.902966 17228.672542 16795.985485 17340.377182 14704.874975 13534.437630 21307.669140 17071.760950 14444.318190 10989.533631 14531.259607 14315.909015 12678.855276 14286.392601 19553.050759 15949.945271 15202.221315 18392.057709 15612.197827 12064.633713 2497.341418 6376.808910 16212.069921 16187.107351 16546.223347 18145.575026 13467.842185 14037.902243 13754.273339 15115.230206 15556.597952 8011.909468 17313.382767 14314.220431 16713.174348 15525.721140 14569.124778 17502.239075 16485.907022 3829.968446 16123.483161 10914.402683 12336.721138 13060.256227 13533.601578 11913.152897 9591.037991 8075.778128 10024.394317 8608.145797 16506.367598 14990.149064 13836.724526 13155.239836 12643.869213 15085.505115 13695.146025 6787.875195 20357.289773 14638.383724 17680.526210 15178.046749 10507.591570 11932.099919 17108.463994 7489.409389 11919.783305 3596.785126 15618.349161 15074.230515 11901.991489 14113.278886 16985.349123 9721.344426 11232.836306 9982.155585 9494.516496 4493.240627 16902.304045 14322.544657 11015.057066 15339.437782 14168.292191 16897.739949 19082.528379 19654.360749 20378.716995 15276.429745 17303.098261 3555.704401 11503.144685 8255.402139 15124.900905 15098.409803 10551.906112 18233.490460 13041.828519 9723.484316 8721.024326 9354.855867 7877.661263 5393.953290 2518.598295 3876.235827 9311.830808 1576.412836 17126.845661 15887.600604 14246.482758 19133.120058 16382.050526 12370.730469 20181.198355 17681.573183 19409.041520 11375.707668 7022.909541 14071.026463 10995.125136 10410.298612 10994.281278 9948.078194 2697.164689 1430.320333 4997.031785 5656.602641 11269.604362 2221.281482 15749.395817 6488.794530 6487.311565 8250.775990 1946.946859 4417.072173 17302.568625 17924.203708 19392.257117 16390.407357 14851.471715 9236.720218 18127.923381 10608.456163 16926.886109 13729.618060 16497.557007 18545.311671 11686.006872 8590.298169 15236.904449 9448.610823 12577.520717 4632.709651 13955.349826 10391.372853 13720.216435 1561.110352 265.969917 5533.138919 1779.258021 -4.952236 2761.309409 5192.886162 17629.360248 17097.213900 16673.225698 14813.724965 16875.267262 21747.498596 18495.837111 8919.805461 14711.245177 5946.815748 8068.892411 8431.246113 14967.623932 11209.816146 16942.697239 12970.599173 7622.320900 14698.131556 12960.598594 8528.571372 9217.888701 13419.485571 2036.820040 12744.456113 13646.535199 7148.035720 1986.761746 2292.190737 18218.873231 16901.595845 15007.812034 15685.453305 16350.536207 18344.056641 16126.196484 21149.058815 17853.467199 17248.406342 18192.313524 16030.866277 15838.442337 10224.603902 6689.430051 18280.931594 11070.088112 15098.808230 4977.589370 6856.697156 8123.710681 5250.820431 6143.561015 4171.044487 8901.134025 4024.242715 4779.358598 2640.784003 18741.852083 17903.450647 15877.136386 16975.266183 19540.610919 18329.106885 18375.511799 14656.532793 12391.390244 10996.885624 11509.822135 4877.718916 11893.822803 13347.751577 8141.907066 8815.146652 7738.564570 10124.740210 6831.864154 13544.210563 9271.715142 4242.788861 6231.413545 9070.579078 4485.468209 4774.495772 2685.137505 3665.876675 18962.945193 19257.839725 18655.563033 18695.176349 18574.988778 16178.948997 12427.408384 20226.527104 5642.991742 21632.961033 9383.138246 13789.955162 9551.425862 4180.360914 13955.685621 8903.034668 6231.973982 10846.528691 11064.056009 8183.803381 8583.153602 5895.602583 7956.181656 7024.987199 5039.007603 6534.316205 9160.125251 5895.416547 19034.674491 19899.193452 20152.586336 21198.090339 15374.625345 17534.552159 14413.041886 19239.137649 13422.934061 12215.962569 8141.001820 9562.456770 15348.355674 16853.480954 7974.582037 14016.250726 13029.775709 1922.169778 4340.068471 3878.641054 11156.400471 14027.344296 5572.485710 8715.777987 8789.350161 6793.432149 5488.803433 2510.101695 19017.314333 20134.134108 20691.760725 17102.133187 18368.775739 14033.771120 14594.570368 14291.049239 9853.686517 12947.715460 12708.629857 14628.959967 16403.936992 2658.376708 10861.806514 4653.908746 12971.178901 7497.201018 8355.056106 16509.272243 11188.252004 7351.268527 14077.062074 5599.655097 10636.112539 2279.153689 5506.139557 7958.552921 18909.296215 19403.889534 19630.169123 18450.040358 17533.355246 17496.312952 16470.213426 13904.297937 9777.213550 17234.623352 11401.584334 6862.025178 5171.618912 3459.283349 3010.470893 8683.582622 11131.777324 1909.296383 8144.886303 4794.648591 3439.332886 4787.317213 3394.641308 11149.317817 3825.701791 6011.137878 10002.871280 3611.991372 18888.660424 17990.894816 17580.400573 19120.196173 20248.432961 22168.810947 17345.652211 16800.171322 15791.490811 13724.520356 10435.811089 8863.068985 3826.740125 3634.326244 625.883954 27.305480 4825.253873 3749.876061 11376.361233 5372.612485 6116.231276 1651.724729 2480.071581 3968.673169 8599.148461 5267.614978 2819.052503 2691.504841 18999.874196 17909.974681 16403.094317 18630.261411 18435.719512 17689.631003 17891.314798 15029.489106 12977.768193 11816.188100 11535.177826 4126.427127 4248.653889 19087.440540 19546.353495 19534.315789 20559.947005 17087.811103 23774.664849 17418.808455 16697.085628 17944.803371 10384.266555 4177.440443 1788.133168 -326.136245 19076.003460 20139.868094 22768.164296 20478.954248 18243.923490 14740.095273 3622.467172 18046.658638 11794.461389 5053.077633 5612.859777 9778.043367 8827.518790 19207.359845 18663.652515 19252.230150 20413.241661 20764.808710 18817.077615 13657.358620 16198.600686 6206.664126 7002.708624 5611.302483 1725.362333 4344.072758 19845.218083 17420.325541 13122.231415 21196.171631 17384.402252 16955.591509 13212.648415 6875.085338 6594.926530 7495.475413 11696.709310 3856.612440 2634.583859 20397.445055 19699.729051 17772.843657 17961.637043 19404.777033 21400.125451 11068.275401 15473.009992 2589.071104 5561.274342 9798.302415 4793.383308 2386.420243 20107.458257 20319.241915 18753.063191 18803.968586 17551.580519 17872.159257 11145.550817 9507.950690 6393.401002 12678.720831 10526.601474 2399.128933 363.756979 19628.737991 21359.724382 23232.248595 20945.488625 16396.273914 6741.283691 5301.499901 6404.972582 3821.136380 12409.640584 6600.251622 6189.276482 511.536488 19257.513299 20974.575016 24453.828082 17651.199876 14270.663394 9676.276374 11824.289824 14343.815034 10954.201318 9367.980908 3479.090961 14.929434 7782.502804 19130.147749 19573.964981 20761.135047 19309.427983 18343.352257 18198.875425 18284.198169 8320.201235 9907.599045 8328.525392 6445.512387 5278.043802 13889.219718 19347.364310 18063.413153 15902.339745 19419.743801 13243.955631 15643.054986 8937.102370 8875.759982 10188.016772 12251.506229 6805.104342 6738.575307 10177.936017 19634.761208 18086.190539 15392.201350 17445.122054 18260.212129 15168.831118 15100.853515 13332.984249 6998.062780 9432.456974 12094.306384 2964.892289 4065.966895 19695.034113 20526.901582 19981.285042 20820.669726 16541.416246 19177.074269 13437.945316 14552.428501 3831.225676 12116.100808 12474.797212 1049.900993 6919.392020 19476.883691 21137.809486 22384.392425 18469.961076 14596.841981 15757.479096 18389.755293 15032.866115 6296.072087 15212.216793 4454.037796 5848.501088 2349.791865 19299.161072 19381.594969 19298.528137 19977.862980 15700.157565 17080.146699 20020.563639 16655.976704 12008.777884 16516.226122 2585.983555 6724.183291 4056.972331 19404.122534 19671.378789 21666.026063 16316.537060 15266.252944 20207.183672 18716.383049 16298.212729 11595.524633 14482.186310 8158.358599 5926.662918 -863.277887 19595.768012 19074.070465 19019.928676 12316.144833 17943.605681 19223.168207 15255.222503 18592.963307 5259.416438 9130.297136 4154.540819 6089.521827 4880.563028 19935.220950 19050.928774 18286.845442 19694.165733 19322.197555 14857.375637 14091.775841 13711.270518 12245.642338 16673.405115 5420.126948 1983.568141 4213.632367 20462.792075 20089.055234 19361.797671 19395.165657 18600.580089 17194.441630 11451.800003 13588.725905 14074.996593 7858.502623 10580.439129 13052.716424 845.078781 20891.115617 21819.171271 21740.943849 19670.240219 19978.835268 17052.156122 17708.058609 6639.501143 9862.144675 11933.249178 16125.712992 4953.477406 -265.738292 20860.462785 21561.607634 20669.340887 18308.693427 23297.515660 20713.806852 15619.366901 9736.083750 15346.385435 8255.388725 7702.986090 6738.327922 7171.958736 20608.438781 21117.287416 22188.614964 19624.611631 17720.549395 19180.943500 9809.622376 11866.104735 11736.246002 6583.587561 8655.498174 8427.401436 5283.342166 20608.685298 20374.688137 19868.987592 19876.456179 24970.152244 18366.108524 15174.781627 10100.550356 10836.310121 8304.432885 7180.147435 2199.824552 6267.737592 20651.147102 21363.120651 20587.261590 21819.097239 26993.138718 13578.742559 12976.381160 14347.657629 7511.656989 7522.149512 4886.477803 6662.876422 4385.831283 20377.868969 20272.774817 17894.873076 22843.794639 18102.471526 19323.906511 13314.550957 16303.597803 8090.026874 10925.184191 12031.662917 7193.557521 1289.044803 20053.770746 18820.676928 16022.748982 20053.445967 21303.602860 6707.483846 12519.975625 13283.922776 14265.624775 12548.157789 10935.724687 9658.599307 6741.034122 19861.133909 19184.361518 18150.948675 21342.242672 19224.880838 17485.518789 3813.494262 17818.093493 10294.121714 11758.066126 10378.046229 6438.734731 3042.537198 19775.210846 18871.997394 18778.036627 20969.878400 21327.232351 18506.815653 5882.679903 17121.036316 3858.768527 10157.976391 11886.287029 5936.769029 1058.249781 20087.560451 19913.889450 21268.530308 20142.976197 19036.091440 15797.706105 17262.058364 16332.296936 11580.318867 10514.116366 5882.509135 3742.476663 4226.196226 20547.627273 21270.017638 22850.240107 20466.883114 19843.220759 19297.207170 16948.435434 17322.332580 8991.974561 7197.693833 6725.788978 7811.736759 3866.746433 20717.568407 21853.343127 23200.080233 22119.399513 19293.033756 10025.324248 10098.787498 17773.542130 17865.075585 11765.510916 10545.343854 6936.593574 6481.715099 20678.595853 21551.525978 22622.607773 18535.571488 18001.802280 11709.416170 14707.718714 17121.890441 8625.812337 6618.674046 4991.170957 7091.456875 2620.446088 20543.247870 21422.334511 22608.394657 22368.273615 17325.501317 16228.331055 14096.192909 15336.159393 13130.086568 10238.459714 9391.690844 7083.996326 5211.521959 20280.031945 20875.617635 21350.603807 21005.562632 19037.009028 14866.075296 15438.531911 11735.601249 8558.719198 10151.994792 12638.461139 4789.085667 1606.340184 20048.898946 20498.799891 21417.386889 22198.562715 19942.093794 15311.242976 18144.625879 13305.125264 6928.898209 10822.839026 11651.090169 1966.793382 6314.232605 19890.420390 20139.949007 19971.152284 19878.424140 18379.352129 17395.984749 16910.683139 13803.264394 10730.871964 6443.047879 11298.037462 4868.929720 5139.178076 19729.962709 19799.688223 19587.238528 20040.896134 18985.591411 16406.295321 13836.497612 18161.748963 10262.173748 6100.698471 6728.915189 7326.239972 6940.953572 19431.362811 18871.405880 16871.267106 19634.363697 18175.538658 15368.282326 17346.389337 8601.260587 8485.992852 7020.790455 3225.841302 8360.895049 1463.380101 19096.379864 18670.080825 17546.477368 19459.095616 16734.492705 15904.330611 10151.924890 7513.504543 5709.683277 10516.859990 5372.320636 2184.074174 4424.612960 18746.263900 19034.677525 18894.676525 17009.227691 15848.075289 17577.710976 12575.439772 7712.541767 13223.438138 6508.232105 4999.646976 3867.282448 5093.685007 18577.804365 18340.631948 17711.540050 18940.266835 17527.350543 15346.371825 17026.405784 14161.208909 8885.255218 6411.681009 6286.332407 7225.096299 3946.676020 18570.760980 19422.890162 20226.643155 17981.788031 20529.216759 16713.423158 12442.146184 10689.654856 14153.488186 8946.453223 9551.590095 5778.832695 6457.923745 18311.849691 19419.252497 20397.006866 18821.639143 19489.651410 15341.790706 16282.702541 14258.289524 12124.915655 4966.546512 5796.055497 7492.724261 4925.660912 17969.472204 18529.160789 18963.561820 18731.176799 19360.155022 16161.454696 12002.290658 8936.487020 7870.362445 9645.959362 5452.491048 4816.700540 7059.589352 17668.563507 18439.590161 19375.480572 17942.025299 16700.932958 12770.061007 7886.516785 14666.447829 10314.642988 7833.169600 6078.412892 2965.151310 4814.495452 17218.687722 17203.888761 16798.536282 15799.198360 17039.815877 18338.462109 11235.614799 12118.373311 11864.727903 7455.038742 6579.226572 7408.881900 1971.278421 16801.859483 15960.256086 14249.812468 15449.355481 16189.758667 11945.903338 8210.254475 10339.482100 10369.657426 9201.047314 5988.048579 8044.935885 5862.467179 16510.110319 16398.620726 16283.664776 18205.017722 15186.561634 11194.053237 12494.117975 12473.350288 10325.701746 7196.836265 5266.282916 8205.099482 3888.727278 16176.936636 16667.120244 16847.263214 14686.622453 15982.596966 15194.406350 7055.435601 10372.931746 8395.409029 12473.529984 6640.420517 2112.838985 5537.488190 15875.689253 15199.493747 14240.004320 17726.952501 16447.011829 14690.737457 15515.470705 13697.486582 13258.276047 10300.881448 6571.759440 10127.688526 9647.520337 15594.257900 14622.717366 14169.617075 16885.638385 11853.787625 14425.875832 14948.787029 13818.353354 7071.504756 5679.744174 10539.417823 6650.213645 8214.331582 15344.439006 15260.437872 16173.664715 17795.119867 15419.940704 11753.865311 11400.696717 11227.091756 12733.496514 10694.487261 8055.398124 5224.954466 4261.506221 15241.370152 15056.260181 15678.476369 16854.676959 17055.720482 14704.427091 13960.416142 14674.042579 12888.674687 9366.964703 8478.918624 8114.808664 3726.933674 15302.221777 15190.582536 15087.983009 18494.285136 15192.793454 15774.771081 8262.545875 12713.258481 10336.981273 5346.125449 10230.263412 6452.450903 6064.691520 15333.609950 15524.080738 15690.514590 15648.749286 16221.761735 17203.727247 10851.083603 13165.127630 12060.928695 10637.812241 11454.145663 4261.364825 3647.793854 15301.374229 15840.082301 16121.816253 19224.922680 16911.904400 16127.346832 13571.133678 10381.350170 8174.030422 9655.303153 8115.169830 11136.083993 3896.013626 15252.131210 14810.155069 13689.905668 15333.567261 14537.044648 14413.342788 13472.266612 11266.032901 8004.732910 8445.076765 10366.866267 5060.142557 4361.960278 15211.106197 15304.499789 14767.474908 16476.344670 15363.886528 14803.965217 14034.754260 11563.070154 7948.781487 8133.606157 6602.791144 8284.949534 6193.105428 14928.234234 15994.651887 16897.795817 16120.341532 14466.405139 15623.590992 7797.687968 9501.069679 4860.068075 4918.722733 6186.017257 8468.109604 4293.164819 14593.153746 15180.235770 15757.877666 15377.615468 14308.700550 13107.712674 12771.511428 8628.767447 11952.925383 8923.328935 6790.018980 5871.659683 5516.221218 14469.925967 14609.122061 14481.397373 15251.713440 13410.708926 14131.638853 10058.100621 11092.284442 11274.013733 8706.164622 6208.324679 6976.690108 2026.999133 14346.253748 14383.770553 13912.525147 15421.358269 12347.218678 12633.329817 12555.912386 9841.326461 10000.900868 9776.760967 4751.454203 6136.237921 2779.328254 14299.842607 14343.936667 13444.789630 14572.603168 14969.120375 13526.810882 13268.496054 10494.719834 10482.264502 8324.628467 8237.193958 3229.450083 4945.366825 14189.873073 14548.945444 14169.952463 13995.631029 14168.470473 9678.566046 11322.601181 9695.939019 6602.582490 11164.592488 7909.628533 5493.462574 5358.530536 13741.772386 14310.649719 13932.802958 15670.308371 14025.747531 12495.972071 12498.197101 13607.875878 11006.419695 11613.567253 9879.910564 7405.730541 7765.346653 13243.922863 13328.114198 12770.832415 12656.874648 13553.667898 13327.711636 10807.821135 12982.444453 10176.201733 11233.965013 10109.002417 6170.185997 5037.641470 12866.583653 12874.746263 13047.110658 14205.731081 12317.751823 13135.275448 9882.870981 11951.630779 5375.328422 7783.643984 8761.965149 6197.856636 5295.836083 12594.647162 12870.223941 13115.667718 14991.152232 14557.581423 12939.819547 13441.105125 12610.377870 7563.965768 6054.687365 8365.999059 4677.811234 3737.384311 12495.754370 13349.919795 14286.372013 14340.910422 11795.295895 11810.769532 12342.032368 10297.556379 5489.401514 10279.191328 6074.252439 5891.185399 7344.557217 12485.325596 13262.129027 12921.479477 13246.932067 13395.237765 13180.717932 8071.025694 9322.102124 8087.667351 8021.887413 6437.552058 9671.397426 4011.025684 12643.435399 13633.900962 13296.581410 14522.941172 13313.144241 9073.229610 10012.886723 12815.220513 12661.720877 11188.839263 4711.747620 5097.717088 4716.298434 12660.104672 14101.268682 13334.829507 14723.146943 14325.371296 12712.192714 12147.885440 9781.587910 11072.591638 10115.997346 7690.002092 10223.994132 7180.156389 12438.868932 14279.930181 14605.372557 12956.549332 11269.108097 11885.500488 9465.356876 9299.725526 7449.427521 6423.303815 8226.718871 6436.529583 3622.329086 12307.475755 14209.546158 15685.841335 13196.778617 13941.134860 12011.715531 7288.981402 9948.734943 5854.465937 6523.135249 8207.530401 8378.909965 4797.697678 12316.921327 13814.584550 14916.618443 15337.843574 9358.217931 9172.436979 11086.788048 8872.304499 7741.304594 8438.677399 9606.264962 7251.515016 8895.898252 12376.801926 13713.894879 14234.754349 11167.582020 12477.437921 10772.069664 9663.808616 10926.577876 8777.841341 9120.668555 6552.403511 4221.162763 2235.422681 12456.901362 14100.737101 14574.947869 12744.740182 10705.364892 9966.841762 8152.833907 7439.590479 11715.895341 6747.509557 4523.980879 5864.143706 3712.730380 12419.847658 13782.791991 14013.980853 11100.581269 10816.363426 12558.698720 9011.875705 11103.728092 10311.263030 11190.209970 8039.998706 4853.753650 9517.204567 12278.108807 12980.770411 13318.133823 9552.294874 9958.922636 9995.947223 10878.746947 5052.316771 9450.861891 9059.000052 8954.582083 4352.532954 5745.935505 11869.632150 11868.044019 12137.791450 13880.793595 11644.396945 13540.118166 10413.297072 8737.198403 11287.957282 5726.401506 11129.310830 8167.810020 5225.478670 11084.107756 11143.747611 12747.984232 10882.954467 13008.785695 9921.630520 11794.089899 10839.549062 11196.401808 12338.096892 13343.248287 9366.804311 8724.919045 10241.536507 10069.957986 13044.259331 8978.472908 9424.937114 11523.720157 10461.482117 12509.082760 10059.385955 10162.248787 9241.481813 7653.192822 3564.277537 9952.044794 9155.932352 10739.430833 12409.219801 11222.799792 10764.772327 12532.380012 12586.294724 11910.759774 11890.010366 11398.878726 10710.365245 5065.598305 10210.263284 9172.014076 8865.482152 12915.283529 11573.711180 11727.909664 12151.408414 13099.800134 12126.384543 11637.093907 12221.121786 11436.840870 11906.074119 10243.335475 9533.496230 8717.172685 11973.363107 11744.745800 12754.447637 11937.528254 9652.752141 12111.188669 9373.090892 14512.637437 11271.678869 12992.265658 10072.083854 9947.042920 9758.764565 13172.912922 12656.476604 14318.329125 13122.965276 13204.572577 14344.151511 13260.811623 11516.596022 12903.203275 10788.736965
</DataArray>
<DataArray type="Float64" Name="Velocity" NumberOfComponents="3" format="ascii">