<VTKFile type="PolyData">
<PolyData>
<Piece NumberOfPoints="2177" NumberOfVerts="2177" NumberOfLines="0" NumberOfStrips="0" NumberOfPolys="0">
<PointData>
<DataArray type="Float64" Name="Pressure" format="ascii">
 21723.980908 21750.456362 21754.473219 21596.244945 21147.969839 20518.190164 19833.667275 19098.261654 18274.427044 17319.452475 16225.721401 15014.687088 13715.465661 12356.893963 10926.386564 9312.069028 7573.588545 6073.320795 5117.965347 4602.046882 4185.579743 3699.465620 3158.832687 2519.821897 1701.160925 726.711993 -298.945898 -1248.236213 -2018.503540 -2554.943107 -2858.036132 -2974.690444 -2962.871785 -2869.980509 -2729.287069 -2562.616131 -2383.820382 -2201.551808 -2021.181574 -1846.038753 -1678.174166 -1518.819477 -1368.662303 -1228.014918 -1096.922705 -975.238621 -862.678952 -758.872360 -663.420822 -576.019846 -496.769913 -426.874108 -369.453035 -328.167222 -303.493044 -292.920190 21840.466113 21903.524066 22047.800947 22032.933009 21433.556852 20594.594669 19830.264483 19146.435097 18422.962990 17457.643472 16263.082372 14978.888288 13713.550978 12445.910918 11211.717691 9685.038975 7710.588740 5876.334769 4886.984507 4516.006303 4076.315445 3463.120694 2971.720357 2533.159832 1902.163573 1055.397827 46.928037 -975.374450 -1861.792900 -2493.223669 -2836.932768 -2967.522572 -2960.209551 -2868.878509 -2728.805864 -2562.424455 -2383.781703 -2201.600413 -2021.281956 -1846.170122 -1678.323566 -1518.978367 -1368.824753 -1228.176527 -1097.079684 -975.386194 -862.807017 -758.951903 -663.360786 -575.536041 -495.017605 -422.179721 -360.416670 -318.722357 -296.036254 -287.102276 21965.864073 22012.200106 21957.121726 22744.283676 21442.879913 20066.275252 19432.991645 19217.872339 19313.237942 18253.481505 16818.729204 14944.259374 13894.602009 12580.862353 11550.472264 10248.103865 8240.395016 5332.327605 4363.918865 4463.744127 3977.329729 3007.878944 2583.985167 2543.510796 2143.702530 1613.291009 629.990951 -498.233721 -1566.910810 -2419.113374 -2820.369663 -2964.353846 -2960.080688 -2869.234196 -2729.088958 -2562.563901 -2383.806732 -2201.548283 -2021.180677 -1846.038522 -1678.174084 -1518.819370 -1368.661993 -1228.013906 -1096.919389 -975.227745 -862.643292 -758.755462 -663.037771 -574.763151 -492.685960 -412.771736 -339.060228 -300.413478 -283.260420 -277.395276 -295.820412 -278.101759 -270.712458 -255.698718 -249.368654 -245.717359 -216.690312 -215.167898 -213.741464 -185.157277 -184.748897 -184.250134 -158.112595 -158.027364 -157.835279 -134.680841 -134.687597 -134.595995 -114.353609 -114.384650 -114.327656 -96.757347 -96.792478 -96.749409 -81.575580 -81.608933 -81.573152 -68.525954 -68.556005 -68.525212 -57.352810 -57.379351 -57.352583 -47.824341 -47.847555 -47.824271 -39.731044 -39.751219 -39.731023 -32.884472 -32.901917 -32.884466 -27.116010 -27.131021 -27.116008 -22.275600 -22.288457 -22.275599 -18.230434 -18.241396 -18.230434 -14.863606 -14.872910 -14.863606 -12.072770 -12.080631 -12.072770 -9.768803 -9.775415 -9.768803 -7.874516 -7.880052 -7.874516 -6.323403 -6.328017 -6.323403 -5.058467 -5.062296 -5.058467 -4.031110 -4.034273 -4.031110 -3.200107 -3.202708 -3.200107 -2.530669 -2.532798 -2.530669 -1.993579 -1.995315 -1.993579 -1.564428 -1.565837 -1.564428 -1.222922 -1.224060 -1.222922 -0.952267 -0.953183 -0.952267 -0.738640 -0.739374 -0.738640 -0.570713 -0.571298 -0.570713 -0.439248 -0.439712 -0.439248 -0.336749 -0.337116 -0.336749 -0.257160 -0.257449 -0.257160 -0.195613 -0.195839 -0.195613 -0.148213 -0.148390 -0.148213 -0.111858 -0.111995 -0.111858 -0.084089 -0.084195 -0.084089 -0.062964 -0.063046 -0.062964 -0.046960 -0.047023 -0.046960 -0.034885 -0.034933 -0.034885 -0.025812 -0.025848 -0.025812 -0.019022 -0.019049 -0.019022 -0.013960 -0.013981 -0.013960 -0.010201 -0.010217 -0.010201 -0.007420 -0.007431 -0.007420 -0.005366 -0.005375 -0.005366 -0.003851 -0.003857 -0.003851 -0.002728 -0.002733 -0.002728 -0.001887 -0.001890 -0.001887 -0.001239 -0.001240 -0.001239 -0.000709 -0.000710 -0.000709 -0.000235 -0.000235 -0.000235 0.000247 0.000248 0.000247 0.000805 0.000808 0.000805 0.001522 0.001527 0.001522 0.002502 0.002508 0.002502 0.003883 0.003892 0.003883 0.005849 0.005862 0.005849 0.008652 0.008670 0.008652 0.012626 0.012652 0.012626 0.018218 0.018253 0.018218 0.026012 0.026059 0.026012 0.036766 0.036828 0.036766 0.051446 0.051528 0.051446 0.071262 0.071369 0.071262 0.097702 0.097838 0.097702 0.132551 0.132721 0.132551 0.177900 0.178108 0.177900 0.236116 0.236366 0.236116 0.309774 0.310068 0.309774 0.401515 0.401852 0.401515 0.513819 0.514189 0.513819 0.648645 0.649033 0.648645 0.806921 0.807300 0.806921 0.987824 0.988151 0.987824 1.187821 1.188033 1.187821 1.399409 1.399417 1.399409 1.609518 1.609201 1.609518 1.797528 1.796726 1.797528 1.932865 1.931372 1.932865 1.972158 1.969715 1.972158 1.855944 1.852230 1.855944 1.504949 1.499578 1.504949 0.815987 0.808500 0.815989 -0.342428 -0.352565 -0.342424 -2.134654 -2.148045 -2.134640 -4.762481 -4.779800 -4.762438 -8.469514 -8.491472 -8.469373 -13.545112 -13.572397 -13.544648 -20.327674 -20.360760 -20.326160 -29.207152 -29.245697 -29.202204 -40.627056 -40.668000 -40.610889 -55.087698 -55.119058 -55.034891 -73.157095 -73.137526 -72.984633 -95.512235 -95.301844 -94.949032 -123.084551 -122.203062 -121.247101 -157.736942 -154.329478 -151.712121 -202.162190 -189.331550 -183.093958 -228.742006 -207.087274 -197.214222 9593.857344 9595.865083 8945.354021 8407.558467 8392.447187 6740.812354 6189.798463 5684.204114 4778.280209 4101.283809 2740.671232 1757.644548 1661.823779 1392.045884 902.471463 403.038382 -46.679943 -432.680095 -763.101429 -1053.283143 -1316.680210 -1561.388443 -1790.228370 -2002.287474 -2194.651169 -2363.784800 -2506.443734 -2620.170936 -2703.497206 -2755.955488 -2777.994120 -2770.844343 -2736.373728 -2676.941594 -2595.263703 -2494.289161 -2377.090578 -2246.767700 -2106.364376 -1958.798486 -1806.804336 -1652.886950 -1499.287690 -1347.960568 -1200.558512 -1058.428328 -922.611614 -793.843996 -672.529433 -558.608927 -451.132877 -344.775080 -255.208076 -218.031192 -201.901654 -195.534613 9463.267634 9494.252064 9058.890531 8074.970139 8684.723223 8338.631159 6695.708278 5968.114785 5325.705308 4644.761595 3675.860035 2756.629000 2061.189385 1479.221369 925.390005 409.373609 -44.607513 -431.734646 -762.550660 -1052.935518 -1316.435938 -1561.169893 -1789.981552 -2001.983917 -2194.283405 -2363.359400 -2505.974926 -2619.675929 -2702.993255 -2755.458303 -2777.517135 -2770.398483 -2735.967423 -2676.580925 -2594.952598 -2494.029623 -2376.882926 -2246.610815 -2106.255941 -1958.735219 -1806.782215 -1652.901434 -1499.333961 -1348.033885 -1200.654941 -1058.546762 -922.760053 -794.059930 -672.947125 -559.692672 -454.428796 -357.812756 -277.576973 -231.914282 -209.722674 -201.047117 9363.926066 9364.988200 9264.536092 8951.571143 8810.220618 8301.381945 7309.766612 6471.672063 5678.544872 4824.102930 3898.989807 2999.567103 2216.702442 1542.827088 944.202298 413.280365 -44.788255 -432.584474 -763.222640 -1053.357538 -1316.709643 -1561.397791 -1790.230842 -2002.287985 -2194.651219 -2363.784774 -2506.443711 -2620.170924 -2703.497200 -2755.955485 -2777.994119 -2770.844343 -2736.373728 -2676.941594 -2595.263703 -2494.289162 -2377.090578 -2246.767701 -2106.364379 -1958.798499 -1806.804378 -1652.887089 -1499.288145 -1347.962061 -1200.563407 -1058.444375 -922.664205 -794.016322 -673.093795 -560.460228 -457.127476 -365.852579 -292.450307 -243.394098 -216.347339 -205.300402 22010.968448 21746.590503 20986.825491 23083.725176 21516.292891 19846.247042 19164.283210 19611.477001 19924.282046 18453.076636 17371.392481 14897.047209 14273.545461 12726.730671 12067.383772 10769.055405 8706.192448 4684.065560 4342.265439 5196.460402 4202.454228 2750.734656 2506.701118 2552.307884 2246.543358 2252.895513 1346.009180 -262.201499 22178.189327 21309.622911 19815.443904 22521.233926 24648.067279 23859.383431 22979.826962 21266.644102 24835.948865 24693.702414 23684.079700 19831.844662 22576.193641 23931.772654 22782.339036 18216.575333 23675.065654 23002.921835 21042.123741 19601.046205 23502.475433 21191.821219 22491.998165 23869.066213 23228.484340 18294.785711 2349.312738 5624.002266 22712.708040 22385.828909 22044.552083 23732.517598 21391.878598 21173.220294 21399.453604 18107.895457 22319.561366 14157.551668 20260.250520 23236.424838 20703.806762 22324.039781 20969.575275 23638.693304 22444.664874 12460.921096 24447.236921 19537.264189 21725.417513 22264.727254 21233.168939 18506.385829 14000.510098 6911.169255 15982.539513 12211.425944 23623.163863 23825.377058 24030.092331 18971.665262 17068.294775 21205.415634 16330.543169 14074.938785 23953.777114 18646.482610 23452.422104 23870.617714 23422.888220 15748.263736 22226.326668 6226.046545 12702.363489 2683.795878 20133.864978 23360.837634 16306.556730 20532.266088 23993.346869 16707.745972 15283.007880 16898.822195 15177.452397 4847.287688 24416.242350 24737.087779 25061.610791 20345.617460 18175.804384 19327.211052 23700.442523 23897.710493 23304.286327 19213.872362 21897.373257 9181.112414 13939.984883 12106.596677 17985.032459 18140.038680 19460.213371 21577.445565 18221.424500 21017.327945 13095.981207 20972.110944 13308.751676 7034.641991 1783.482337 6220.502182 13617.836586 2786.955331 24456.414516 24211.691912 23169.979506 25034.568219 20184.606488 14031.897082 22841.630266 22497.594748 21931.149563 12205.238714 9940.921618 16077.058421 12295.394990 13285.893456 12176.898153 15425.841518 10487.495260 2509.413934 4933.979034 1688.337572 14349.778047 8133.198246 22677.677817 11841.954946 12614.780481 9747.256992 5229.708278 5278.479233 24023.109990 23996.031316 23599.614127 22425.907412 19397.426795 13125.745826 22048.263490 10411.126171 20188.064784 18148.375892 20126.531985 22032.950874 11930.171963 10790.409003 14243.255846 12566.663046 14144.725536 5478.953302 18049.355249 15791.746058 19558.199648 7320.192558 4937.964620 10400.121303 4902.951902 4401.527399 4977.758987 1974.685546 23692.694130 23558.804230 23369.321505 17730.232944 21890.116742 22242.893749 20899.908986 9811.452452 21107.533957 7479.054673 9935.997922 9712.557046 18173.412990 18940.565354 19634.113234 15497.354670 7448.283221 14972.697499 11912.707687 10682.742940 9905.825505 16727.106728 3759.103978 15367.767076 19014.535595 7747.858606 5022.916544 2095.384163 23694.727412 23782.476418 23933.126180 22615.573364 18721.290848 23279.031134 19583.995037 21376.730793 21006.585799 20676.862318 20488.262714 19052.200686 18209.679505 12091.250948 9500.054735 19226.327605 14906.573204 16809.636445 4338.250557 5819.909213 9955.879797 9560.676340 7719.028123 8729.539187 12535.137335 788.927859 11487.014208 2621.411773 23739.555387 23351.648014 22549.294617 21598.664912 23081.276891 23409.216701 19525.535201 17852.633016 15166.978578 14613.701583 12364.075954 9115.103852 15372.040975 17392.033672 7626.330682 11432.405237 8327.946576 13909.370175 5622.766931 18237.227696 6527.986570 5506.598131 7870.192336 12741.439183 4691.569846 1336.001009 3471.203353 9581.836844 23662.865956 23533.061712 22421.558678 21152.412086 18629.932918 19388.858863 15073.235329 21445.863678 7920.896154 21207.218675 11555.164348 17120.075104 9548.699031 6277.043750 14342.590207 11220.813539 9278.617276 12654.392132 12457.143034 10586.337834 11575.398869 6003.306346 9265.432511 8666.872642 3799.310510 9786.140494 10898.789102 6491.122121 23437.988003 24033.281692 24123.006618 23032.517871 19967.422627 22175.686261 17252.579065 22496.058872 13391.499903 16873.397945 9485.392301 13697.321560 14834.107152 15287.541049 8651.817913 10661.202890 14978.813205 6232.701191 5483.530997 4507.704116 12071.363464 14386.602913 5182.422223 12425.532762 6631.998400 9189.265200 4037.471522 4510.888276 22891.101759 23575.987571 24271.594525 21897.486958 21592.860251 17350.753636 18019.694682 16587.606749 13516.932001 17861.638753 14188.431740 16198.656372 13895.435403 1799.006480 13897.594654 992.388057 12130.666914 8831.150794 7557.645305 17138.521082 8320.865839 5468.123436 11335.921837 10882.083685 9838.811057 4553.919098 5882.289311 8571.676149 22197.212757 22787.093136 24614.434181 22253.289472 18658.116005 20707.620207 22962.560650 19101.588676 14899.928503 18327.043923 10573.397876 7180.246802 3520.380823 4947.365376 5327.075678 6872.327371 11915.682579 6699.074581 6666.575392 4706.133425 3188.274985 6664.266944 1275.325533 13547.308272 5786.596247 5101.923672 10548.308800 1975.864312 21885.498011 22993.551899 25031.212956 21491.403699 20220.981929 20931.666238 19976.914583 20227.164773 19267.007135 14126.248074 10293.217374 9831.259037 5530.052301 -1743.986009 3959.369745 3342.462982 4602.352130 2759.099581 3740.036930 2881.012868 6062.718783 4169.270838 520.411011 5192.895126 7422.233926 2545.637748 1667.549347 3953.665773 22229.647320 23535.667282 25009.179006 20468.440162 21877.327594 18600.511479 20224.361488 17467.141251 13135.972272 12574.902641 10629.289105 1330.207430 1733.091680 22856.654700 23629.127730 24066.806395 21290.241622 17832.710679 19023.188245 20069.188905 16492.746023 17299.643831 8405.588508 5924.344407 4670.822769 1292.660075 23035.004235 23284.350315 22727.777245 22303.554984 16496.197301 12260.882750 6395.485804 17425.002191 9788.132938 5893.846964 6741.952114 10243.596937 7887.801512 22670.505640 22753.683484 22617.913711 20364.738568 18352.587563 19130.850368 14172.559887 13702.107356 4461.676239 6986.901638 5616.413568 2646.756050 4978.489393 22162.059171 22574.529429 22613.916118 20135.874062 18539.640827 16109.464175 13337.998228 9851.692447 6117.389498 9353.523443 13046.753438 4391.698448 3749.939561 21839.219196 23169.728026 24732.723721 18948.163125 17910.535615 19936.406363 12054.664592 17776.457774 3682.673806 9073.283532 11996.099844 3384.827953 5664.957984 21582.687370 22430.625080 23597.525814 20325.339575 16568.502268 17474.013022 13701.194283 9408.240605 7739.027628 11862.488520 9781.817942 2701.239814 4196.765898 21240.514449 20843.102046 19816.781150 19836.380670 15955.424166 3963.766410 6993.439077 5438.916659 2777.398384 11885.622732 5940.903871 5568.216026 3975.294374 20956.370882 20119.051785 18844.204254 17348.727888 16531.274416 8017.948548 12367.997490 13087.894342 10183.920452 8188.948975 2026.983299 4396.728175 1870.459883 20931.228018 20894.379858 21029.024027 21542.762272 16952.586001 16963.953617 18254.956773 9707.866277 9272.013022 7273.049559 6350.027844 5233.469908 13741.999244 20838.012572 21105.551350 22041.381314 18986.733973 14964.760199 16566.934570 8394.460551 10290.125985 8120.219815 13607.834168 6083.287134 6159.383916 6429.501289 20517.811873 20625.747471 20645.640283 17289.419522 18098.355951 16565.734661 14444.559853 14478.921995 8027.368029 9190.997469 9834.921968 906.312503 5305.987839 20319.878993 20555.982956 20810.737097 21113.382363 15202.917981 17796.224117 14212.185494 14016.108218 1595.433588 10865.848709 11477.081231 3214.747513 1881.304904 20180.601370 19597.026275 18954.835294 17151.884140 14803.652604 14722.483116 16905.430330 14543.097087 4817.759345 15589.947162 6106.550098 5297.087065 3747.336679 19949.527189 18622.834441 16691.883256 19906.180565 16884.503572 14951.742566 16204.823991 15933.295433 11608.690576 14345.398374 3552.791671 4652.821979 2248.056624 19959.545947 19522.880105 19466.843554 17190.076900 17057.393006 16058.182709 18265.130389 17477.995324 12696.424143 12979.894592 7340.735507 2909.684803 2383.210165 20149.372470 20330.257426 21295.570972 13047.342469 17098.445138 17320.156647 12432.966258 15669.711672 7378.272501 7187.120034 3337.277578 3363.993068 3962.987334 20053.184378 20265.659065 20244.550566 19868.833135 18500.747132 15289.158191 13154.917684 12482.447549 8861.713494 13140.558984 4206.731192 3665.703600 5848.629094 19529.058884 19464.246225 18915.890777 16000.114456 16179.059648 16260.556875 12424.784192 12749.782242 11892.217868 4847.949984 8308.212502 8773.921659 2932.991567 18844.693996 18400.762239 17886.776807 17617.748466 17540.306234 15923.815996 15938.815794 7369.649684 9138.769823 10719.597563 10461.639334 4672.366762 1758.743668 18488.549708 18508.337637 18460.245615 18396.393983 17344.259934 16446.139070 14403.276145 9205.146396 15733.032033 8350.948097 3789.663123 3381.893727 2530.160680 18524.780160 18518.423819 18109.541346 19698.775800 16736.623224 16765.356401 9049.393973 8656.147432 8315.772845 7261.928384 6300.853076 4997.870399 1805.326403 18545.861158 17764.949151 16656.047855 17869.540474 16292.561194 15595.596279 13570.620032 7093.023842 10496.181974 7187.753333 4428.555926 3059.573715 1558.027642 18312.277508 17537.737107 16644.404255 18897.331938 16641.962415 10552.254296 11039.055694 9598.375111 6039.065743 4951.720185 3384.678744 3658.793415 2895.188615 17903.406770 17109.388297 16460.980742 15436.369792 16371.791161 13387.205735 11136.562915 11199.056734 6509.768028 5790.817077 6649.049668 5786.002734 1258.124459 17467.115311 16213.843184 15028.317856 17677.070074 17281.263935 7637.675306 10851.132043 9666.479372 12098.035260 9762.976130 5125.164078 6558.428395 3700.037825 17133.990347 16142.837884 15210.400959 16024.053042 16389.121282 14265.728795 3458.572590 14584.073774 7537.899689 11238.144381 3698.508740 2818.339950 1769.106568 16882.110461 17646.560057 18763.361248 17127.622629 16671.431928 16275.392096 6213.827012 12368.818499 5819.015096 6832.259707 8086.979430 3199.550651 3841.926902 16533.610780 17940.835900 20452.251551 16312.511266 15632.533665 9373.090911 12543.887343 12601.582667 8796.450950 7786.140426 4959.941115 2995.956604 4018.414111 16264.678233 16898.519793 18729.187555 15614.340277 17879.963649 14101.192501 13231.552764 12737.633977 5421.675120 7164.580334 3220.333252 5606.788131 2068.054629 16390.016168 16264.691946 16447.775676 16727.031455 16838.327783 8769.154160 10565.370050 17340.722671 15446.368349 8861.296486 8654.170718 4786.936022 3518.636187 16666.705196 15911.986151 14533.077794 15121.736909 12665.044754 8705.306030 11320.861862 13258.400061 6529.341855 5224.046380 4892.268299 5756.625021 4735.639366 16482.630557 15785.115440 14423.503260 16655.670378 15290.951585 13840.295205 11136.479388 12061.990497 9942.860307 5704.121696 3062.004906 6762.042729 3897.868688 15846.761845 16019.209381 16254.085266 16825.335679 13335.561872 14979.194372 12357.691992 11520.121881 9100.720415 10563.300851 8736.165273 4690.188022 4118.913934 15224.288109 15726.819899 17426.820279 15699.504667 15907.579369 11483.149469 13212.551651 11401.908142 7940.932912 9235.790548 9016.802157 3537.958167 2832.079464 14736.729482 14896.125923 16830.543302 16305.741775 17149.999932 15004.630893 14336.420756 9654.895901 6159.961222 4394.534184 6114.995995 5119.791042 2025.927681 14683.187301 14502.221119 15779.342552 16439.729139 15496.573639 13246.515630 10768.271708 13753.198607 8842.392622 6246.021252 7667.764073 5138.579660 2882.462630 15192.199015 14743.805705 14108.542609 16681.659046 13530.130423 12957.182184 15317.370648 7394.321659 5308.402393 6361.751781 4334.969037 5599.756878 6049.021977 15775.197635 15281.584045 13579.377952 15477.443406 13745.400309 13216.385402 7035.335955 7597.374318 5040.415673 8017.036127 3326.813144 3136.354430 4057.501262 15967.375130 15352.792181 13282.134461 13605.898631 13000.292328 14034.891690 10417.244021 5302.901534 10686.693434 4857.753234 2052.660587 2657.350889 2524.787323 15903.506416 14638.932940 12631.453070 15439.356684 13826.387743 13332.468457 12440.315575 11396.794936 9196.720229 5205.154696 4764.496650 5267.063839 3813.060703 15744.887223 15185.704230 14613.902516 16245.946793 15692.558018 12516.052912 10479.647128 9457.866600 11103.173218 8374.121802 9513.191971 3499.598508 5352.843417 15434.595781 15747.846773 16052.408890 15478.918688 16912.920096 12599.038072 11875.773583 11148.490512 11886.967305 4013.671850 5292.170137 8400.064947 3218.965157 15190.474128 15294.682950 15293.351745 16388.107645 15640.734110 14923.125934 9828.484125 7911.335168 7043.275646 9033.759712 3395.576791 3051.573744 1919.658752 15038.690197 15214.750734 15561.163952 15603.846968 13393.379507 11099.875358 7760.628391 10659.753496 10136.410423 5043.296543 3136.318442 6803.148842 3561.713812 14842.627499 15040.687772 15521.599870 12672.442503 13710.335346 13152.960720 10196.814538 11534.110251 9998.833003 7559.534929 3393.302017 2876.863880 2358.646184 14689.495774 14629.132860 14877.729742 17545.472954 14047.220983 10202.610135 7380.167263 11143.614355 9821.865752 7478.430753 5556.579912 4791.093837 3866.761871 14608.200764 14182.253811 14129.029605 15097.048548 12464.964454 10246.041502 12001.512699 11922.135796 5458.523450 4263.853552 3426.310100 5462.613304 3271.492546 14429.467427 13498.474403 12984.274570 17119.820733 14782.750796 12783.029741 8082.955067 6859.718928 8228.885683 9619.290875 3891.191338 2780.201610 2899.525414 14344.039992 13542.131112 13299.720695 15577.535668 12813.436077 13028.684658 12338.837026 11843.066731 9354.001078 6420.522205 3658.598943 5439.656276 5402.073283 14612.545951 14456.556356 14465.616724 15384.335553 13764.169194 12409.075288 12471.018478 10949.408516 3962.312439 4589.688829 5521.966752 2912.344180 7061.426510 15011.832050 15294.677168 15861.069529 15635.065705 16261.193593 11728.376247 10466.569715 8823.638679 10601.172746 7570.920921 5064.339859 4647.257148 2804.807800 15155.651079 14902.687112 14147.463541 15137.763973 14922.819161 13387.132652 13392.773641 11188.809249 9360.102723 4613.663323 7749.122229 6888.364917 3410.645865 15073.395672 14743.991215 13528.302101 13558.327269 17269.184013 16802.194020 6762.065253 10997.508683 8269.194904 2924.731988 8687.047951 3400.936857 5356.874528 14808.954105 14534.358957 14037.014564 14832.867510 14731.579660 17234.410773 10395.283760 11749.548453 10180.109263 5737.879501 8102.452611 1849.157159 4641.626813 14425.099435 13880.903722 13306.341777 13966.057039 14426.464123 15439.891398 11418.208346 8549.838079 5548.578578 8508.369695 3787.269252 10495.473267 2748.566695 14314.752666 13845.205137 13257.837774 14663.883019 12698.617645 11463.223386 10442.071661 10907.560715 5168.102979 5875.206575 8027.611564 5883.573137 4992.874449 14488.261140 14007.105360 13497.249566 15054.425007 13376.424513 13017.580663 11948.879152 8328.206368 8638.136351 4696.390490 4702.739989 6887.808010 5296.443796 14595.653625 13855.001041 12716.661358 14193.942598 12005.132230 12224.394064 6031.872170 9406.938718 5936.896774 2994.087080 4098.179744 8258.152521 3857.629246 14546.487810 13717.979700 12710.642131 12385.348649 14008.417690 12651.449161 11510.742024 6128.707525 9988.211611 7427.677741 6094.490039 6592.010037 7017.876568 14488.423401 13758.712997 12896.443496 14262.970046 11607.755030 10285.743430 9698.678107 9807.212190 11731.661464 8305.125215 4810.025322 4879.535561 1814.240638 14421.292260 14243.972313 13366.500016 14630.829438 13480.823978 15227.860522 10350.190599 5556.173152 7039.426953 9326.030016 7199.873563 3643.206842 1396.354892 14167.356015 13606.995316 12256.411109 13941.090269 12621.135354 12222.044441 11379.736379 9409.753299 9652.749529 5197.195394 5304.087614 3884.331897 8944.944431 13761.573172 13299.578715 11852.352875 13196.123146 13111.748100 9960.414881 9170.680920 10556.848567 7378.606767 11796.286069 4900.739504 5540.861730 4943.663646 13322.731093 13515.642630 13403.219891 14608.020025 11347.694876 11578.959079 12894.958017 12986.041847 8902.688418 10940.858785 8824.359974 6455.064356 6485.034680 12872.046536 12814.744833 12400.449881 12329.784073 13044.130459 13656.010539 9906.309654 10684.031087 8199.426210 10480.227203 10032.524039 5870.333868 4524.331952 12551.892346 12011.292241 11288.252636 13436.116962 9222.085727 12280.446022 8711.520971 9790.430102 8448.323025 9254.648793 6476.515746 6111.204864 4248.221308 12342.929284 12239.067782 12173.356108 14279.677547 13799.156532 11994.824852 13732.684007 10348.870522 9064.795615 6056.481065 8323.581678 7659.018173 6296.367135 12163.227380 12847.764267 12822.824915 14110.744735 12252.847678 11675.311721 10442.347671 10321.706143 8803.552207 8551.610451 7236.834604 6329.601862 6416.034538 11990.609111 13215.993366 12320.802911 13531.040171 12127.134110 12152.937542 9078.988392 9367.783358 7981.676666 8935.797222 5225.574827 9752.793130 5319.801736 11644.505236 14553.209101 15961.487736 11118.106860 10933.671883 10387.119133 10939.088761 12037.471296 10810.424506 9009.739697 3039.669520 5096.602546 3376.942466 10905.318384 13202.410540 15442.460786 13212.429355 11725.774888 12428.048226 11837.745553 10631.523760 8484.293329 9551.705589 8229.212433 7425.864824 5731.864411 10370.636499 11813.082932 13922.382855 12492.213495 10834.212954 11401.700081 10684.909558 8227.988899 5796.022556 2848.215159 8078.994885 7386.734003 2534.906340 10549.454422 11286.997889 12809.024006 14096.689504 13284.704136 10055.767228 5345.159937 7244.499822 5825.584318 3086.158801 7459.635614 8477.296040 4215.075059 10829.013393 10761.347573 11049.818885 13286.192612 9544.369296 7732.670660 10385.287934 7433.068791 6540.326565 4731.465005 6650.252220 7656.735903 8017.025727 10620.555317 9247.795318 7659.309390 10647.342120 10634.666638 9536.044916 7641.729796 9305.306580 5872.498177 7142.776294 3989.313145 1341.573877 4788.314430 10512.873172 10228.263192 10797.365722 11384.503263 7643.907614 8810.602836 5361.527871 4198.284983 9562.381011 6316.984048 5760.462608 4205.881914 2217.241703 10611.998831 12207.477496 13886.295461 11270.488733 10766.396092 8993.118212 6803.401557 9918.246111 8031.086454 6632.337207 9064.649360 3364.542637 6698.740879 10534.811456 12877.754785 14311.530762 9724.357061 7626.355817 9613.296553 7938.923380 5656.639445 8184.497743 7935.991419 6040.135273 2692.445769 2793.616231 10087.171103 12258.981140 14123.941504 13147.159919 10683.172903 8754.307472 8571.756812 8239.438924 12232.499202 2299.366632 9432.555547 8787.607177 3674.307061 9501.052800 10830.165732 12994.510632 9117.692224 11661.056317 7467.485901 9633.703686 7003.603161 10067.752044 11208.499210 11931.309340 9445.199340 5119.442595 9232.138364 9264.982049 11376.585050 6454.983428 10857.820811 9956.938435 8514.585770 11488.647271 7349.204931 8035.343969 7994.975463 4511.342649 2515.361771 9384.181972 8196.283604 7756.731562 11107.346416 7769.387371 9098.407521 8695.103519 12577.623859 10037.157786 8567.635705 9964.886882 8695.867492 2391.108245 9703.976039 7981.623013 5710.406724 13226.709836 10728.412045 8821.920126 10251.607648 10537.575646 9641.107850 8199.602631 9109.318606 8677.180489 8199.220357 9734.426924 8972.476359 7455.311033 7202.653069 10788.280659 12868.503124 10450.595086 12852.557985 9379.045470 6441.092093 13004.344211 12222.210940 12001.044266 9593.857344 9595.865083 8945.354021 12826.848269 12882.388413 12279.541583 11043.705523 12450.299122 13442.812584 12906.157530 9487.755932 11060.823459 9437.918261
</DataArray>
<DataArray type="Float64" Name="Velocity" NumberOfComponents="3" format="ascii">