<VTKFile type="PolyData">
<PolyData>
<Piece NumberOfPoints="2177" NumberOfVerts="2177" NumberOfLines="0" NumberOfStrips="0" NumberOfPolys="0">
<PointData>
<DataArray type="Float64" Name="Pressure" format="ascii">
 12962.062211 12840.551899 12484.771420 11815.952773 10891.585901 9893.839602 8938.123889 8024.499954 7081.732632 5984.952998 4668.184577 3080.796434 1295.110418 -304.665198 -1376.742548 -1982.567552 -2382.173843 -2828.212333 -3546.601230 -4575.020330 -5417.112959 -5735.200440 -5708.546619 -5548.314345 -5332.891515 -5084.801520 -4810.399655 -4509.050982 -4178.831142 -3830.844316 -3487.027746 -3162.584649 -2863.281269 -2589.675524 -2339.995041 -2111.650733 -1902.013425 -1708.795963 -1530.197466 -1364.902006 -1211.996814 -1070.857227 -941.030257 -822.135501 -713.791825 -615.571149 -526.976911 -447.444695 -376.368444 -313.175241 -257.526278 -209.760259 -171.397817 -144.258845 -128.187880 -121.306289 13210.325862 13130.639291 12835.925393 12139.972963 11058.482372 10012.681348 9109.803450 8253.276172 7447.138535 6409.892244 5124.081805 3448.099078 1158.997401 -798.446334 -1737.109952 -2122.733091 -2269.978240 -2310.829064 -2673.067741 -4355.104255 -5689.369174 -5970.885860 -5826.465672 -5598.229512 -5355.038378 -5100.290695 -4832.280961 -4544.227623 -4210.745279 -3845.858112 -3492.825109 -3164.811357 -2864.295765 -2590.265941 -2340.415452 -2111.985997 -1902.296734 -1709.044408 -1530.422120 -1365.110576 -1212.194397 -1071.046736 -941.212856 -822.311030 -713.959031 -615.727303 -527.115559 -447.547574 -376.378949 -312.917213 -256.475872 -206.893620 -165.914309 -138.715266 -124.003598 -118.161921 13527.345126 13455.052291 13203.250354 12612.195636 10909.115663 10162.747319 9708.967209 8282.834721 8104.232148 6920.442244 5827.702039 4351.656423 817.341855 -2007.090239 -2406.990188 -2310.986785 -2118.918357 -1306.255251 -1058.746877 -4419.020994 -6431.059126 -6308.553997 -5971.008445 -5657.088750 -5381.123081 -5119.269922 -4863.770941 -4614.648311 -4285.585824 -3867.798795 -3498.419274 -3166.151571 -2864.394453 -2590.022728 -2340.103212 -2111.684393 -1902.023886 -1708.799209 -1530.198471 -1364.902312 -1211.996893 -1070.857201 -941.030081 -822.134894 -713.789818 -615.564537 -526.955139 -447.373037 -376.132706 -312.398792 -254.994333 -200.965741 -152.727202 -127.905133 -116.870928 -112.941452 -125.690698 -114.426404 -109.581833 -102.712105 -98.733453 -96.346791 -81.733851 -80.775916 -79.861411 -65.842934 -65.588438 -65.269480 -53.004034 -52.951500 -52.829519 -42.517343 -42.520926 -42.464192 -33.946232 -33.963602 -33.930050 -26.965003 -26.983830 -26.960077 -21.306706 -21.323635 -21.305206 -16.745685 -16.760043 -16.745229 -13.089991 -13.101878 -13.089852 -10.176783 -10.186500 -10.176741 -7.868713 -7.876587 -7.868700 -6.050725 -6.057060 -6.050721 -4.627121 -4.632184 -4.627120 -3.518874 -3.522894 -3.518874 -2.661193 -2.664364 -2.661193 -2.001335 -2.003820 -2.001335 -1.496667 -1.498603 -1.496667 -1.112972 -1.114471 -1.112972 -0.822982 -0.824134 -0.822982 -0.605112 -0.605992 -0.605112 -0.442399 -0.443068 -0.442399 -0.321603 -0.322108 -0.321603 -0.232460 -0.232838 -0.232460 -0.167069 -0.167350 -0.167069 -0.119386 -0.119595 -0.119386 -0.084825 -0.084978 -0.084825 -0.059924 -0.060036 -0.059924 -0.042090 -0.042171 -0.042090 -0.029394 -0.029453 -0.029394 -0.020410 -0.020452 -0.020410 -0.014090 -0.014120 -0.014090 -0.009671 -0.009692 -0.009671 -0.006600 -0.006615 -0.006600 -0.004478 -0.004489 -0.004478 -0.003021 -0.003028 -0.003021 -0.002026 -0.002031 -0.002026 -0.001351 -0.001355 -0.001351 -0.000896 -0.000898 -0.000896 -0.000591 -0.000592 -0.000591 -0.000387 -0.000388 -0.000387 -0.000252 -0.000253 -0.000252 -0.000163 -0.000164 -0.000163 -0.000105 -0.000106 -0.000105 -0.000067 -0.000068 -0.000067 -0.000043 -0.000043 -0.000043 -0.000027 -0.000027 -0.000027 -0.000017 -0.000017 -0.000017 -0.000011 -0.000011 -0.000011 -0.000007 -0.000007 -0.000007 -0.000004 -0.000004 -0.000004 -0.000003 -0.000003 -0.000003 -0.000002 -0.000002 -0.000002 -0.000001 -0.000001 -0.000001 -0.000001 -0.000001 -0.000001 -0.000001 -0.000001 -0.000001 -0.000001 -0.000001 -0.000001 -0.000001 -0.000001 -0.000001 -0.000001 -0.000001 -0.000001 -0.000002 -0.000002 -0.000002 -0.000002 -0.000002 -0.000002 -0.000004 -0.000004 -0.000004 -0.000006 -0.000006 -0.000006 -0.000009 -0.000009 -0.000009 -0.000014 -0.000014 -0.000014 -0.000021 -0.000021 -0.000021 -0.000030 -0.000030 -0.000030 -0.000040 -0.000040 -0.000040 -0.000049 -0.000049 -0.000049 -0.000047 -0.000047 -0.000047 -0.000015 -0.000014 -0.000015 0.000091 0.000093 0.000091 0.000358 0.000363 0.000358 0.000960 0.000970 0.000960 0.002223 0.002242 0.002223 0.004745 0.004779 0.004745 0.009585 0.009648 0.009585 0.018576 0.018686 0.018576 0.034790 0.034977 0.034790 0.063240 0.063551 0.063240 0.111879 0.112381 0.111879 0.192948 0.193738 0.192948 0.324727 0.325936 0.324727 0.533634 0.535431 0.533634 0.856534 0.859128 0.856534 1.342932 1.346560 1.342932 2.056484 2.061386 2.056485 3.074973 3.081353 3.074978 4.487616 4.495579 4.487636 6.388297 6.397769 6.388373 8.863227 8.873882 8.863511 11.971622 11.982889 11.972656 15.718329 15.729762 15.722043 20.017743 20.030655 20.030929 24.648008 24.671538 24.694411 29.190497 29.263326 29.352599 32.931464 33.200983 33.493648 34.621758 35.660810 36.572393 31.754626 35.894268 38.240291 27.328696 34.978535 38.558343 13905.052504 13884.188166 11295.240736 8816.704046 10648.788174 11783.929386 8752.904197 3772.487019 4396.673704 4770.796195 3354.657682 5484.727357 -384.949588 -1080.951672 845.438150 441.889075 -324.581373 -948.370794 -1424.804726 -1857.032440 -2300.447668 -2757.811228 -3206.570978 -3618.545830 -3968.936611 -4239.293670 -4418.274574 -4501.855141 -4493.100640 -4401.181726 -4239.617021 -4024.101017 -3770.408737 -3492.767286 -3202.883489 -2909.626382 -2619.233391 -2335.846807 -2062.181270 -1800.156095 -1551.380781 -1317.442052 -1099.993497 -900.686692 -721.002472 -562.044431 -424.347569 -307.738023 -211.257329 -133.128659 -70.692519 -19.220292 17.519446 31.135882 36.807105 39.280296 13519.207674 13535.105820 11583.176043 9326.386367 12626.073068 13353.597350 10985.045369 8617.181794 7716.361905 7303.116643 6594.701568 6135.019183 3617.554546 2334.119592 1696.807946 757.703387 -171.336816 -858.767687 -1370.173118 -1823.524339 -2279.541944 -2744.308961 -3197.432154 -3612.028484 -3964.043109 -4235.455759 -4415.180856 -4499.347038 -4491.100674 -4399.643918 -4238.497518 -4023.346010 -3769.954324 -3492.545518 -3202.829974 -2909.686550 -2619.366066 -2336.024875 -2062.389952 -1800.389672 -1551.638761 -1317.725578 -1100.302591 -901.018610 -721.351255 -562.401697 -424.705141 -308.095148 -211.642915 -133.679330 -71.909448 -23.793382 10.663947 28.262805 36.298900 39.512113 13319.623651 13237.714892 12969.769148 12937.946219 14505.477393 14824.472554 13383.636051 11980.103609 11028.304202 10092.109125 8888.354194 7456.513773 5697.272832 3981.250828 2435.854814 1048.194623 -30.732455 -774.981590 -1316.590055 -1789.284049 -2257.989452 -2730.994247 -3189.442920 -3607.494642 -3961.761859 -4234.628575 -4415.248086 -4499.900299 -4491.844467 -4400.378628 -4239.106042 -4023.777374 -3770.204655 -3492.639170 -3202.803431 -2909.576595 -2619.202583 -2335.827841 -2062.169658 -1800.149027 -1551.376508 -1317.439499 -1099.992034 -900.686055 -721.002939 -562.047729 -424.360230 -307.783179 -211.415507 -133.679703 -72.570034 -26.264464 6.233464 25.740999 35.717059 39.694119 13629.854447 13472.172645 13360.671366 13417.782723 10957.852405 10166.848600 10252.725860 7982.839559 8635.771233 6949.751528 6288.842037 6311.777433 2273.925837 -2200.934934 -2662.983322 -2370.824301 -2088.264730 -989.059993 -486.989583 -4437.730438 -6762.426764 -6439.326637 -6012.718036 -5673.068450 -5388.210192 -5124.656840 -4874.762161 -4651.568388 13747.284574 13279.007377 13068.121578 12787.949499 16497.329218 14380.628173 15660.971290 12662.628964 14473.892302 14561.384192 13733.403696 12332.108159 17435.888704 16665.194179 14115.849741 10843.475236 12856.887150 13580.241654 16358.225705 13938.608355 12878.063351 11772.370972 14618.329850 12742.439099 15076.658838 11642.506473 5998.586953 -2497.013042 13928.303387 13840.203947 13604.114000 15702.431365 12785.294098 11375.979888 11873.896299 11937.044243 15560.832327 9680.459251 15612.760246 14506.144498 10661.862667 13984.547019 14662.644727 14446.481014 14851.372933 11604.801236 13170.648274 11477.539857 12626.275021 10984.496621 12822.970185 11961.165316 10384.105791 4650.449843 8886.998654 7255.280105 14036.419091 14060.547157 13989.826256 11992.979939 12387.186900 10666.567782 9811.643883 7571.166712 16213.465121 8903.983865 12611.817304 16059.528517 11713.033585 8249.853491 12168.373600 5207.450907 9053.483068 6594.853400 11448.106508 16446.757693 10992.173280 13022.749572 15051.642727 9276.108788 10904.969450 10114.365223 7967.853685 6542.509980 13941.106094 13166.632946 11681.522610 13271.058853 12041.366711 13074.164664 14518.675154 18300.321664 16284.908421 15510.334095 13018.541185 7572.679603 10401.411382 6049.650468 11572.423446 9100.428327 10470.141414 15483.240949 10007.346824 12133.622578 9018.992595 11609.215182 8700.988259 3944.111448 3338.438239 9801.558708 7312.858838 1844.041090 13912.658061 12880.051516 11559.250765 16197.361491 16054.888997 12621.600378 14651.255671 17294.504020 14535.196696 7883.758963 5760.151576 7858.035956 7161.966635 7473.103642 11288.626089 10770.615270 4307.971000 -879.462941 5839.640071 3431.920044 7560.540020 4235.272563 11718.680683 5799.725750 9954.456602 8089.045105 7890.319585 196.734782 13942.212024 13229.624416 12457.475422 16455.539412 14061.417566 11666.501961 13598.192221 8753.661133 14458.560721 13835.982984 12825.026342 14245.625272 11511.706546 5938.607446 8902.631044 7098.647308 11981.321788 6623.487104 12547.803503 9124.004595 8663.147105 2042.129049 3545.521221 6725.221803 4592.367823 6389.742305 2672.240897 1927.852129 13931.756769 13632.375490 13447.676695 12766.355702 18259.777543 15240.843594 15385.195753 10059.549581 14361.675117 6768.948898 7746.119368 8193.833287 11846.553067 13957.923861 17106.294613 14260.692454 5131.777454 11249.747343 10434.018548 4066.324363 7579.221703 10279.637812 2644.578174 10554.724145 7247.395849 4380.979892 5246.363287 3205.023689 13936.825059 13472.203100 13529.053173 17947.231177 15735.318989 17715.498906 15667.223323 16305.367177 17706.358921 15358.346681 16293.402688 16155.545789 12207.328161 12787.792775 9374.250379 14586.339236 12874.126045 10417.212993 4396.847955 5382.678236 8339.688491 4749.027996 1648.541493 5768.530310 9143.269938 3021.870835 3747.499803 1629.452685 13998.272030 14252.387401 15517.850390 15458.704070 16982.616453 18699.041036 16072.881083 15074.688228 14454.789601 12723.017336 9588.042224 8627.451683 11390.824065 12359.961687 6309.461160 7646.553204 4616.021780 8009.494511 6733.535380 12389.925915 4620.276607 3070.925407 6669.188394 8879.784536 3529.040452 3705.600500 1134.279051 6908.448876 14142.882964 14811.114535 16628.620195 17280.992966 15989.084223 17102.040555 11441.681375 18425.428930 5418.511500 17295.881170 7423.117493 14985.340619 4479.442196 4429.325428 9229.176290 7949.940605 8075.646716 9049.918322 7626.742524 8401.220132 7623.603043 -251.344342 6007.800833 6333.150916 4547.106832 4877.536245 7988.010539 6106.728292 14483.426265 13716.174488 13146.501306 17208.440327 15798.912588 15447.592408 14589.409876 14818.771611 10709.879472 9394.325167 4553.324024 15158.959500 9690.734328 14978.183012 8540.081117 10368.734360 11419.780865 3298.127110 5173.092747 4182.179543 8634.391555 11946.800493 4289.926086 8815.336624 3590.788175 3764.198044 3104.285461 753.180692 15038.286250 13889.946825 12409.157161 16088.930520 18232.645721 13167.165060 14268.117015 14406.432692 9553.629834 13185.770520 12306.185382 12768.749967 11742.622291 2883.011026 11724.134892 2298.038137 7925.953615 3193.864690 4222.259702 11514.979398 8367.488863 5446.237546 8575.135010 6799.119145 4138.223369 -287.407357 4302.566842 5493.637223 15485.184894 15327.891007 14544.311131 18674.035830 16389.488511 16357.067067 17632.940714 15792.971365 10423.683112 13217.291301 10841.661052 6114.417267 2179.602689 2060.909450 2164.710592 3551.142539 6121.535316 3483.712729 3264.478191 3829.982296 3007.975963 2400.864982 3748.124147 9028.279773 900.576240 3991.173324 4830.952098 2146.625640 15652.396444 15558.368628 15415.114267 18372.309170 17164.613322 17406.988005 17061.712057 15144.659725 16191.587205 14137.396601 6833.086374 4621.843051 3931.931126 1183.351676 2246.117136 1279.819358 3362.538639 3648.740265 2518.844725 4996.347386 4216.298723 1531.766964 1170.456080 4377.468936 5751.771486 1264.667459 2540.186084 3341.492846 15685.872084 14804.269025 14315.772339 17566.378311 17886.830004 15227.942404 16840.964161 15071.961033 11281.708234 10158.825133 5860.190590 585.210499 3077.375013 15810.348948 14923.139355 14563.900715 17463.944935 15294.850075 17445.838404 14121.689108 15506.570307 15086.076671 7145.805627 3335.709836 3802.421504 1655.491844 16168.907280 16456.702660 16664.774938 18005.367776 13241.171412 11350.890075 3704.630868 11279.511732 5453.031856 4064.204272 7949.610580 4393.615486 7382.315416 16720.513809 17378.277191 17724.518933 16333.736691 17597.922369 16949.638399 12245.998812 9512.065044 4501.608581 5581.823898 976.262153 2910.797000 4022.779095 17261.559530 17982.916054 18472.331188 17408.983737 13844.758921 12060.819499 11053.346293 5384.998381 5010.641306 5385.816573 10512.712800 -182.143310 2715.187991 17475.569214 17837.593521 18295.677673 16506.630078 16195.049796 15892.116651 10114.204770 12529.867138 4198.967495 2602.278498 8243.201177 4112.885826 2688.619979 17403.532689 17447.304953 17530.642746 18295.106176 15828.381495 14007.361651 8462.306625 8586.323300 6457.006403 8757.280474 7310.561949 4794.035753 3645.347673 17292.295102 17456.691632 18522.381592 16764.069291 15701.717474 4951.968705 5496.106154 5469.639944 3394.041612 8907.912513 5558.163899 5002.411406 3831.572529 17169.688721 16620.726045 17309.303983 15321.094110 12778.949277 6905.874139 10709.496831 10916.714232 9422.881415 5206.617038 4323.172910 1717.380526 3636.781459 17166.650197 16017.431626 15442.331115 18445.620030 14985.290486 12792.402188 14891.547721 9859.567197 8798.626767 6456.042166 7654.169911 6821.349326 10255.948078 17400.482969 17015.822853 16645.639918 17797.662306 14517.422359 14098.269975 9555.093985 8990.027619 7698.204021 13539.851394 6638.418675 8531.732013 4444.311322 17650.217594 17899.856435 17895.499925 16758.012551 17697.242605 13219.407502 10363.137886 12612.322918 6993.338808 9544.212171 10239.706411 3397.742343 2448.284911 17747.315109 18519.786465 19899.563013 18624.947476 14873.971171 16148.529408 14592.930216 12616.934961 3281.786372 8502.082331 11787.985569 2657.418111 6360.709950 17687.403570 18176.286501 19123.195365 15793.784814 12245.018108 11702.581644 16385.725585 13832.800439 4536.906902 15043.190378 4368.778972 5139.397740 3712.007909 17681.179412 18012.386273 18605.691667 18158.173112 14579.750612 15754.101735 16016.199026 18221.132795 11867.764464 14978.174176 3273.876815 5109.997185 4718.807103 17636.325737 17892.691528 18272.973545 17159.343019 16533.951151 21022.769529 17768.533479 17142.105816 15344.661027 15491.453523 6869.549855 1391.587581 2552.993551 17292.675058 17198.850480 17280.008465 12565.342742 17025.228565 17539.096308 15432.388617 16897.491610 5771.863546 9004.560191 3618.106641 2926.890147 3017.129939 16891.185863 16305.868327 16345.214302 18525.508597 18054.873611 16150.108170 14816.165233 12572.861564 12679.338739 16581.371412 6312.499308 3610.657183 6537.740242 16864.011297 16750.603818 16582.466045 15755.651262 19007.452396 18508.672689 16032.395872 11814.708451 12746.928312 5515.350975 7364.953099 9047.894489 4558.209215 17162.183486 17424.181212 17399.320568 19032.847749 18923.491278 18203.936797 20848.599495 9234.516825 8130.694273 12738.457006 11014.736286 7007.313238 1960.699722 17592.543430 18153.332524 18352.818122 17075.417209 20109.790574 20482.275157 17182.682236 7087.920434 15791.198169 9556.082843 5656.490994 3557.351219 3650.674249 17973.183695 18551.495676 19474.227507 20388.319372 21816.137298 17400.086240 12930.998489 11820.253632 11632.365664 6445.873432 4582.380805 3399.371702 4309.455195 18143.384397 18017.894197 18293.196881 19194.262317 21753.834899 17860.331568 15603.683172 13367.504792 14257.509841 9202.095124 7049.084362 6016.136778 -21362.466156 18296.370361 17997.501260 18328.140790 20119.563102 19378.803938 12737.082565 17560.391956 11081.051475 6959.885335 6766.289799 5986.272707 4402.558158 3866.379919 18501.481449 18547.097301 18712.143074 19346.649426 17977.001169 19118.071793 8286.882025 14301.531768 7283.242117 8432.971899 7223.920950 7361.858093 4772.507784 18402.670765 18146.293917 17838.002623 19354.337526 19772.975068 11161.634271 15331.350841 14295.386204 17270.755731 11571.488122 5771.436551 7584.317038 2350.791234 18134.052283 17619.056317 17924.408632 21114.228331 20935.186522 16626.220415 8536.401499 19312.449800 11434.463884 16867.308780 3688.955531 3037.650135 -9751.083072 18038.087988 17571.679566 17840.184394 21110.943299 18872.089574 18178.063502 11515.294587 15927.911850 9547.436952 9437.251033 11137.189356 7908.088472 1905.531899 18146.248461 18024.399035 18472.518384 22069.503958 16278.341393 15544.522281 20501.921472 17757.861697 14878.812779 10397.578488 4590.603458 4905.971940 5388.956808 18281.812058 18412.897695 19177.112323 22384.077200 24320.887258 18176.933901 22155.139370 19009.288021 9836.368295 11293.146082 5858.787550 8267.005520 1724.635360 18317.091784 18599.615943 19056.875565 20531.692191 22173.992811 10065.564650 16516.581288 19535.717264 19450.291803 12602.045929 11317.209552 5810.022207 4752.140228 18294.018752 17928.345600 18489.074914 18936.093531 16082.557380 14716.874150 18674.260346 20052.953464 7991.142077 6785.040409 8384.317322 11321.008346 10508.397148 18493.740601 19039.073729 20047.374472 22172.370948 20982.806543 19695.632652 13468.033945 16005.300751 13379.199602 5090.480315 2644.215005 9440.204934 2413.975121 18643.821287 17944.921508 17543.174056 21264.813063 17855.386928 21257.065144 21461.177940 16435.814163 15121.748551 15056.959532 15485.215047 3666.719493 867.037949 18727.237471 18294.358216 18263.862751 21309.460059 22561.941539 18264.102085 22157.924729 19706.389527 13269.618128 13067.073948 13668.674467 2367.454736 6156.619062 18868.169087 19621.453867 19968.078672 24597.224594 22340.234108 22877.699182 21379.884540 19292.340342 10040.962678 5711.813557 7544.098585 6717.122412 6244.264877 18994.338150 19863.636354 20098.813224 24378.586599 25526.127897 19786.973166 22953.642225 24196.309725 14348.500951 7833.782954 12076.313835 6399.217851 2358.092952 19285.472332 19723.152310 21894.237979 24831.535169 25053.999083 21333.285215 25227.483468 12271.429791 8756.909271 11517.864404 5216.613587 7897.448142 246.791052 19527.343490 19359.200573 18977.566877 26897.290145 26295.541672 21743.347467 10739.390369 5988.335734 9871.582467 12652.873110 4631.287326 1458.830183 4614.353452 19616.227268 19752.863854 19611.680476 25270.874395 24259.727993 24479.669401 20379.002986 8499.726153 17767.557918 7771.538956 7413.855166 -312.159170 4485.719442 19644.063991 18758.875661 18274.605138 25939.888698 28238.320293 23183.690216 21997.709610 17306.694306 17859.735348 13316.868182 9692.057705 8370.143638 4338.214108 19964.549285 20449.694784 22559.525894 24077.256177 24649.838622 22430.872100 17833.714470 19358.045245 21498.380632 16152.963390 16991.693782 10985.997633 8211.641017 20258.125261 22046.516602 26088.582459 26472.487250 25328.563035 26692.119233 24744.177795 19757.620227 17393.982241 3517.571936 11193.831439 8766.941532 4200.846350 20198.419337 19879.714645 22235.261660 27677.884689 27011.562665 24497.809273 19728.338686 16023.251962 12559.312548 15093.906257 4878.588331 78.410333 2364.721495 20366.992207 21450.945390 25646.884773 28629.978135 26415.480088 23575.014912 16090.884468 15848.256308 14255.835509 11083.444956 5631.193538 -32.024339 5522.035279 20742.108348 22049.507845 25469.577804 26866.967294 28677.114911 25897.002764 16757.224890 19048.408836 15418.613277 10668.934107 5382.324498 2687.548283 1541.006455 20975.387379 22394.296542 25339.795012 27453.986299 26131.154721 22077.804864 15225.772444 20901.685467 16410.166514 11561.186131 6816.140966 6755.481186 4447.731783 21103.021738 21097.763197 22734.745907 28553.049970 24793.546440 22543.649212 20715.215961 16828.464724 12826.633845 13872.643433 5566.008651 8034.120147 2104.113639 21393.613516 21623.521037 24214.834962 28001.978963 26276.943662 24780.239207 20959.489239 16757.909859 12990.206430 13450.403268 6739.402071 1278.700036 3160.361710 21746.485284 22960.644681 26199.215747 27543.479198 29293.309573 22289.564263 21788.744948 18703.623320 15124.031780 15312.492913 8744.399713 7041.373188 6431.312021 22033.653366 22752.967688 26619.160238 25893.332987 25762.148539 22371.983041 22846.130259 17705.611449 12042.415982 9547.769721 11804.524312 4433.942644 5235.054316 22667.340915 24096.731661 27398.870201 30125.999556 30546.460748 21655.217991 21772.517786 20666.806427 13574.818044 13178.613829 9448.794743 4975.737979 4102.111309 23289.396468 24817.538546 26882.078875 25113.829347 26701.750869 25995.050625 21331.798432 19698.493811 12496.554788 7286.683881 8009.032680 5818.533325 -8664.744474 23528.491030 23911.189701 24716.860086 26633.959294 27230.379708 23724.781734 19571.354038 17416.319927 12137.253533 5885.316909 11962.813971 6428.750302 3693.568718 23899.048930 25466.066086 26834.586193 24605.391817 22063.414717 27263.061050 19884.665523 16823.809355 11626.006630 8500.521468 8730.391270 1874.246999 8223.997580 24343.295913 26465.517987 27577.693132 21985.102506 25064.769376 23791.593471 19448.847772 13203.444674 8256.669788 10306.749950 6144.301276 11159.181659 5940.818144 24468.780557 26376.167747 27597.566669 21291.552846 22420.253160 20409.490968 18924.764932 17625.117572 14558.820207 7780.848459 10529.789720 7009.347778 215.142446 24444.689731 25195.295803 25492.543550 22834.146643 23457.827590 23589.727069 21288.007123 15761.258510 14395.785458 10524.886033 5717.203368 3785.098999 4074.313893 24618.224792 24135.150156 22159.860372 21979.734515 23112.401882 22006.613922 17406.337386 10905.549609 5817.454854 -884.237864 3692.269587 10612.520253 10497.462892 24862.096168 24020.253556 22203.340714 20706.194415 20101.096398 18805.375483 18303.322926 16087.264049 13337.249778 12410.776118 6542.636128 10282.135284 -4705.067405 24856.200459 24080.094547 21452.632417 22732.449207 20696.322377 17728.303375 16800.527800 14134.948641 12688.093833 10562.894360 2639.125943 5441.998876 -11398.368191 24452.227055 24787.942759 24458.953107 21608.695686 20010.645417 21614.094763 17887.153068 12940.318816 12747.969422 12254.800423 1340.309316 8784.384840 6038.575059 23741.031085 24511.748261 24354.853583 22925.933626 22873.865093 21854.874492 18868.044278 15971.011536 15683.052102 9090.333614 10341.661362 -1032.632313 8660.986922 23025.887193 24356.656842 26315.790296 22907.169923 22614.846314 20426.653851 14070.290289 17472.521350 14292.725767 11398.635160 3787.540600 3854.869691 12412.182687 22570.845227 23516.211706 24865.907998 22979.754607 18976.937754 17902.271949 18538.676743 16757.584406 11393.832693 15470.616582 8242.288967 4953.374184 8187.475253 22437.738148 22170.992540 22134.328510 23295.462816 20965.747607 19832.150965 15598.637704 18343.515421 17415.117053 12191.026937 10849.100837 4610.062277 5255.663544 22697.735096 23489.542064 24510.225563 22482.167604 22073.921940 19787.026347 13995.070326 22256.436072 12940.145229 14485.988984 6647.948609 4212.216328 4311.215659 22673.039504 22840.128106 23889.534077 21227.105787 20959.985225 17884.282217 20576.316191 19208.062312 11621.729374 5742.443181 11906.826742 2053.301705 -928.431243 22025.811966 20799.142420 18480.211593 22228.550323 18595.346127 21175.786477 16789.575651 15315.985711 11807.741314 14720.307432 3946.428581 8420.558617 8781.454201 21458.582509 21406.278784 22318.831604 18531.877790 20734.924275 16985.447323 15854.217315 13896.753285 12687.790655 15240.778588 8439.562223 9853.619969 7914.288038 21032.622012 20636.693126 21654.064717 20991.250892 17557.502799 19082.223935 20523.938409 18545.535213 15386.101512 15674.774545 6072.578519 4481.359174 -5513.404862 20495.112957 19045.560292 17299.584972 20658.309390 19428.533093 20969.561205 21546.075246 13840.045343 12614.135196 11710.023107 9125.261916 8677.081513 13046.042649 20122.427401 19913.065970 18835.835050 18645.151256 18679.370162 19383.231200 21236.427448 13329.827394 8539.070289 9725.434927 10629.389090 6016.026557 -7884.306508 19675.055307 18729.603237 16780.059555 16671.395941 20673.966780 9638.432485 10919.182534 12282.774759 8675.508595 10179.444858 9002.284919 7969.200948 5548.125114 18869.496371 16965.426946 12896.961069 22649.626889 18022.079141 12303.112646 15652.190109 12151.449231 9967.042048 10323.073585 12093.267952 10844.230506 6625.866717 17633.805023 14041.476973 7991.430436 19415.274469 12503.338912 13531.669844 13458.412205 14469.304504 12347.665135 8881.883252 8824.768727 3852.953321 -8159.306113 16704.905634 12983.079230 8144.260652 18838.534338 19168.815902 12967.280386 8282.131942 8895.177968 13791.131997 10883.041800 4992.118450 3626.178496 9846.702274 16715.380307 16707.866172 16387.552594 19788.327745 16529.109268 13147.292665 13694.397141 11938.010823 10662.679597 10981.607219 7024.990745 10585.767814 9732.660971 17005.122967 17280.796139 14617.911878 16500.721226 11275.191856 13317.368835 11301.882308 7211.690997 14894.393815 12727.632654 9551.564589 9118.620407 9946.107019 16924.040322 15820.635292 11012.463328 20267.003753 13177.218169 14480.450940 9733.674103 9035.436274 12049.152883 6883.322079 9445.157336 8645.296125 3884.360822 16363.390468 13933.702094 8956.759228 10419.070087 7987.091581 5382.898846 9026.252293 9190.889712 7930.023100 15069.241993 12577.866113 9953.534989 5108.667321 16354.286246 13449.331488 6857.261865 12852.089337 11159.087689 16440.670491 12803.416211 11792.466646 10417.493869 7124.202288 11124.744740 8658.890405 -3963.195708 16907.065790 15821.684566 11111.089345 8808.722198 12459.199830 11599.777672 6830.129622 8348.981365 9637.193582 10140.416993 10051.521123 9348.560479 7255.026853 16356.712741 16223.400612 11734.744348 17443.082348 9288.267934 13824.242819 13789.548453 15370.729834 16053.301844 8174.012156 8167.743980 8462.635150 5639.220156 14760.246285 14443.646362 11101.281508 13249.505394 16753.733806 19467.469965 10529.700384 16758.009629 8724.719976 7560.274609 19009.670936 16506.691274 11454.903099 13905.052504 13884.188166 11295.240736 19815.093529 19866.906256 19744.742509 20749.090172 19812.474968 22046.971830 19627.405957 11046.806238 9349.944452 7366.794414
</DataArray>
<DataArray type="Float64" Name="Velocity" NumberOfComponents="3" format="ascii">