<VTKFile type="PolyData">
<PolyData>
<Piece NumberOfPoints="2177" NumberOfVerts="2177" NumberOfLines="0" NumberOfStrips="0" NumberOfPolys="0">
<PointData>
<DataArray type="Float64" Name="Pressure" format="ascii">
 10776.485215 10858.309026 10907.035466 10740.419755 10223.844461 9349.439380 8188.534280 6733.662250 4958.253391 3044.774321 1481.793827 574.677900 293.657285 416.887659 591.042392 381.506269 -359.092956 -1113.720663 -1492.312911 -1726.309435 -2248.699859 -3150.740440 -3960.203021 -4364.510446 -4451.797818 -4366.432483 -4190.193339 -3956.109137 -3674.953815 -3361.634523 -3038.148548 -2720.358652 -2416.478296 -2130.704568 -1865.279027 -1621.344835 -1399.308203 -1199.031079 -1019.959927 -861.222924 -721.707750 -600.126391 -495.070822 -405.061524 -328.589616 -264.152833 -210.285676 -165.584766 -128.732712 -98.530433 -73.966525 -54.365041 -39.548389 -29.526893 -23.763124 -21.322637 11148.858811 11416.061119 11764.487384 11796.252251 11346.002923 10451.019364 9271.390604 7729.441459 5751.001269 3424.896967 1675.727997 729.234948 409.372291 624.359096 1041.039412 1022.690791 -426.375916 -1580.854309 -1651.599762 -1558.179644 -1859.755111 -3301.707852 -4482.437931 -4675.321463 -4593.115751 -4431.841591 -4230.464961 -3995.167609 -3705.874888 -3375.671525 -3043.404392 -2722.292411 -2417.335651 -2131.230115 -1865.704407 -1621.736916 -1399.683131 -1199.390247 -1020.301034 -861.543263 -722.005111 -600.399259 -495.318365 -405.283503 -328.786218 -264.324338 -210.431551 -165.700891 -128.802554 -98.497965 -73.659555 -53.452089 -37.803133 -27.871687 -22.626738 -20.540620 11684.952295 12306.977542 13503.237198 13558.707940 13006.678009 11875.876460 11087.103011 9122.427706 6957.327397 3175.204440 2025.609005 1343.447849 656.719006 915.757061 1925.726196 2486.997382 -748.298141 -2734.306095 -1938.595616 -1054.286692 -791.784713 -3671.244512 -5576.023722 -5129.322411 -4772.406699 -4510.959152 -4282.899052 -4066.887784 -3775.768738 -3396.385883 -3048.857013 -2723.708403 -2417.522808 -2131.030144 -1865.380445 -1621.376416 -1399.318035 -1199.034140 -1019.960879 -861.223220 -721.707838 -600.126404 -495.070777 -405.061348 -328.589016 -264.150821 -210.278935 -165.562205 -128.657275 -98.277933 -73.130944 -51.403013 -33.424678 -24.583300 -20.699549 -19.249887 -24.198487 -20.290543 -18.551394 -17.536039 -16.189186 -15.341131 -12.185579 -11.863167 -11.550592 -8.656684 -8.571724 -8.465379 -6.148246 -6.129750 -6.091004 -4.342592 -4.341829 -4.325456 -3.043278 -3.046532 -3.038152 -2.114104 -2.117610 -2.112571 -1.455244 -1.458117 -1.454786 -0.992433 -0.994591 -0.992296 -0.670493 -0.672054 -0.670452 -0.448751 -0.449856 -0.448738 -0.297530 -0.298301 -0.297527 -0.195423 -0.195953 -0.195422 -0.127157 -0.127518 -0.127157 -0.081966 -0.082209 -0.081965 -0.052342 -0.052504 -0.052342 -0.033114 -0.033221 -0.033114 -0.020754 -0.020824 -0.020754 -0.012887 -0.012932 -0.012887 -0.007928 -0.007957 -0.007928 -0.004832 -0.004850 -0.004832 -0.002918 -0.002929 -0.002918 -0.001745 -0.001753 -0.001745 -0.001035 -0.001039 -0.001035 -0.000608 -0.000610 -0.000608 -0.000354 -0.000355 -0.000354 -0.000204 -0.000205 -0.000204 -0.000116 -0.000117 -0.000116 -0.000066 -0.000066 -0.000066 -0.000037 -0.000037 -0.000037 -0.000021 -0.000021 -0.000021 -0.000011 -0.000011 -0.000011 -0.000006 -0.000006 -0.000006 -0.000003 -0.000003 -0.000003 -0.000002 -0.000002 -0.000002 -0.000001 -0.000001 -0.000001 -0.000000 -0.000001 -0.000000 -0.000000 -0.000000 -0.000000 -0.000000 -0.000000 -0.000000 -0.000000 -0.000000 -0.000000 -0.000000 -0.000000 -0.000000 -0.000000 -0.000000 -0.000000 -0.000000 -0.000000 -0.000000 -0.000000 -0.000000 -0.000000 -0.000000 -0.000000 -0.000000 -0.000000 -0.000000 -0.000000 -0.000000 -0.000000 -0.000000 -0.000000 -0.000000 -0.000000 -0.000000 -0.000000 -0.000000 -0.000000 -0.000000 -0.000000 -0.000000 -0.000000 -0.000000 -0.000000 -0.000000 -0.000000 -0.000000 -0.000000 -0.000000 -0.000000 -0.000000 -0.000000 -0.000000 -0.000000 -0.000000 -0.000000 -0.000000 -0.000000 -0.000000 -0.000000 -0.000000 -0.000000 -0.000000 -0.000000 -0.000000 -0.000000 -0.000000 -0.000000 -0.000000 -0.000000 -0.000000 -0.000000 -0.000000 -0.000000 -0.000000 -0.000000 -0.000000 -0.000000 -0.000000 -0.000000 -0.000000 -0.000000 -0.000000 -0.000000 -0.000000 -0.000000 -0.000000 -0.000000 -0.000000 -0.000000 -0.000000 -0.000000 -0.000000 -0.000000 -0.000000 -0.000000 -0.000000 -0.000000 -0.000000 -0.000000 -0.000000 -0.000000 -0.000000 -0.000000 -0.000000 -0.000000 -0.000000 -0.000000 -0.000000 -0.000000 -0.000000 -0.000000 -0.000000 -0.000000 -0.000000 -0.000001 -0.000001 -0.000001 -0.000001 -0.000001 -0.000001 -0.000002 -0.000002 -0.000002 -0.000004 -0.000004 -0.000004 -0.000007 -0.000007 -0.000007 -0.000013 -0.000013 -0.000013 -0.000023 -0.000024 -0.000023 -0.000042 -0.000042 -0.000042 -0.000073 -0.000073 -0.000073 -0.000127 -0.000128 -0.000127 -0.000220 -0.000221 -0.000220 -0.000376 -0.000377 -0.000376 -0.000637 -0.000639 -0.000637 -0.001069 -0.001073 -0.001069 -0.001778 -0.001785 -0.001778 -0.002931 -0.002941 -0.002930 -0.004788 -0.004802 -0.004782 -0.007751 -0.007766 -0.007728 -0.012442 -0.012444 -0.012364 -0.019826 -0.019752 -0.019556 -0.031440 -0.031056 -0.030504 -0.049896 -0.048333 -0.046662 -0.080448 -0.074234 -0.069232 -0.133539 -0.108711 -0.096058 -0.173413 -0.129033 -0.109216 18993.776010 20545.378790 20832.002150 19677.670327 25423.172570 25361.988142 23237.881541 24017.709400 21969.896573 23767.535294 19639.392273 16015.534440 20628.408618 17596.781295 15665.894707 15416.754874 18714.995754 17989.945242 15431.366430 16000.185283 18529.356357 23224.028937 11199.011193 3910.775658 -814.836574 21661.133918 18165.562926 -4023.651393 -8059.729102 -25.827069 14995.072315 3749.433384 10.222170 -102.403124 -92.085204 -75.004798 -59.875588 -47.206914 -36.796192 -28.365063 -21.629294 -16.317471 -12.180712 -8.997865 -6.577487 -4.757545 -3.403576 -2.405895 -1.676254 -1.144129 -0.752430 -0.446334 -0.231058 -0.151144 -0.118708 -0.105596 18262.983883 18820.036696 17108.592520 17545.375326 24974.092973 27568.074334 25077.767129 23445.452198 23007.247327 24385.292892 22531.888739 20558.673798 22232.395788 21218.219204 20933.895415 21725.075071 21655.238847 20910.996017 19559.460043 17935.262657 15758.666439 11901.671228 7775.401520 5778.206009 5549.469188 5221.340868 1143.343877 -1067.046681 155.907093 2198.686956 1901.517009 493.634738 -57.518490 -105.728349 -92.308892 -75.058314 -59.917298 -47.243825 -36.828385 -28.392561 -21.652338 -16.336446 -12.196085 -9.010129 -6.587128 -4.765022 -3.409315 -2.410317 -1.679904 -1.148137 -0.760076 -0.474055 -0.274391 -0.173268 -0.127821 -0.110385 17514.059394 18096.539623 18241.039534 18686.744899 21257.542565 23551.316729 24102.198599 23821.977732 23703.519160 23768.213742 23365.815942 22970.734832 23152.030495 23302.281372 23555.486090 23733.077846 23318.405552 22248.294475 20645.372252 18323.167021 15337.189430 12057.322417 9242.069942 7045.063136 5022.727888 2927.970197 1289.202735 943.805587 1224.652043 1145.437259 547.557725 57.529021 -97.639215 -108.633027 -92.453043 -75.025686 -59.876813 -47.206979 -36.796195 -28.365063 -21.629294 -16.317471 -12.180713 -8.997867 -6.577494 -4.757568 -3.403657 -2.406175 -1.677223 -1.147481 -0.763835 -0.489094 -0.302244 -0.191750 -0.135881 -0.114042 11929.442987 12751.182744 14300.403407 13990.199064 13371.645790 12054.066771 12507.855206 9927.063594 8391.492794 4206.845528 4468.627101 3406.771886 759.559130 999.911048 2225.768003 2914.371305 -962.393927 -3204.539088 -2052.745799 -893.486531 -812.069471 -4379.976648 -6170.128247 -5286.379020 -4823.181739 -4532.997164 -4299.437870 -4102.532607 12377.649979 13338.709351 14559.935782 14317.949451 15155.262724 15538.876910 13341.298590 11794.162640 13983.787203 14283.329117 14099.867649 11569.328923 14831.776917 15376.769745 14875.469877 11774.346305 15542.819602 15831.879643 15361.348872 14020.847327 13025.571851 10882.802435 14481.863820 14367.389825 15793.977559 14258.060767 94.710239 -2185.684050 12925.542716 14365.409073 16290.971807 16066.587615 8724.875049 12059.261713 12284.961958 13970.534179 13830.488586 13893.142164 13038.021516 15009.382203 10618.170045 13399.350105 11578.455154 12755.521328 13004.396582 15624.082674 14268.586759 10714.611905 11971.985778 12218.026842 13314.168195 12524.821284 11745.599328 10906.626208 8343.926436 5863.083150 13499.995468 15245.554820 17800.035798 9724.246180 14608.440977 11531.406114 10102.047485 7833.857878 14524.957461 10162.237008 15113.763597 14621.939172 7650.447619 8117.114232 8967.362498 3628.589657 7074.098237 5648.912060 15038.063437 14248.988335 7200.348344 12453.323227 11827.399967 11485.406216 9172.020354 9562.570343 21123.509216 9147.570642 13972.737248 15088.222959 16135.355239 15215.319197 13472.388201 14867.865775 14158.607824 14910.958774 14990.395150 13476.173802 11771.922082 9703.276130 12984.426519 7849.808735 13458.004586 11547.820696 10144.032332 12262.381414 10608.878927 7599.804359 6484.588383 11780.445519 7676.530829 1047.744537 9695.359909 7433.203417 9427.602523 2677.167123 14278.774829 14913.127976 15799.779687 17137.323006 14871.233983 11529.835313 15206.679709 14201.140234 12381.664682 10815.364627 7393.570670 7691.583632 5958.508273 9280.642269 10202.933606 9985.341800 9909.496878 788.841108 3415.089904 3128.717819 9801.396164 4666.467646 6881.220362 6170.190745 6852.585574 5361.497511 3828.152384 220.633864 14388.269125 14371.051999 15264.912070 15760.807673 12673.927220 9457.266416 11596.916318 10849.583419 11583.046963 13633.610040 11458.702503 13193.986555 9332.203186 3766.479844 7807.636991 8915.835789 10448.664749 8283.642905 10549.543053 4645.262688 5691.475435 4111.712079 295.151422 8549.242032 6690.917072 8996.679269 -436.541997 3472.923363 14354.362604 13874.085471 13958.762441 12229.901306 13876.526448 13343.173730 13265.368123 9074.964224 11847.510175 11275.631668 9502.470805 8770.173659 7456.094372 14434.246186 12572.678585 10694.207465 5653.612843 8326.619900 6568.468416 8340.651795 7878.940027 9040.896416 4715.534192 6447.851422 5136.412539 3960.499329 725.736577 2016.261715 14510.126095 14345.499183 13849.068851 15160.371421 11417.680649 16020.600763 11307.143446 14199.067303 13052.540302 14588.107421 12230.571605 13953.891484 8556.327426 9419.827782 6925.858155 7475.862986 8548.082968 6080.766852 2516.746008 4702.315379 7546.425765 4182.059199 1928.289784 4630.358633 7191.845079 30.202869 6333.153238 1010.540418 14996.957930 14619.910364 14013.278050 14234.716087 13912.463121 15034.481344 13986.834425 13844.967589 11198.948179 12164.675178 11403.747945 10301.212808 9820.415284 9421.481274 6561.460790 5663.361208 4588.820090 9532.810574 5126.596579 7554.967773 4649.813872 4590.836817 6243.001499 4963.408021 4092.580485 2749.865892 2527.239979 5781.597681 15552.814320 14837.738432 13297.605027 15339.109322 12832.238372 12725.945796 13050.621701 13551.309706 9831.218023 14700.230768 9974.476228 11562.104763 6495.582045 6053.685422 9305.440425 9151.586812 6419.597967 8694.507779 3703.542460 8191.906748 7755.676656 3085.451338 1975.248417 4373.961746 2650.949458 4861.468191 4258.284176 3516.701088 16057.293787 15927.265329 14995.953906 14341.033723 14052.570355 14357.926279 13678.361102 14455.324739 7968.663043 11392.531508 5913.811692 13572.173287 7335.927697 12051.013079 9372.498192 9356.057850 10055.154747 1620.677955 2025.791670 4025.110734 5377.283857 8316.646010 620.640214 5810.267688 2481.786711 5576.082388 1502.695720 2105.479575 16515.697263 17011.771015 18319.507776 15111.590309 15700.376745 11741.153827 12034.493500 12973.296965 6242.781695 12822.749257 7704.101704 11602.317733 9066.159240 2651.270604 6803.560036 705.161545 6838.577479 3337.392116 5701.429673 10246.173394 5412.346740 7496.835844 7651.499783 5178.996658 2031.446034 -47.669101 2928.526862 2221.166323 16778.989556 16268.782852 15287.104054 16036.512729 14712.323193 15432.740655 13159.125578 14763.577929 10444.870760 12297.595076 8292.841901 3405.283658 156.501332 2147.680459 1195.713322 5044.920998 4889.510426 792.503495 2104.400632 1062.129812 1912.457830 2534.728892 3254.780812 7251.528420 841.021239 4213.563014 3420.244213 3680.979788 17048.222897 16802.687458 15571.090485 15952.159683 12894.920509 15058.490916 15285.443108 11784.922117 13003.377835 9513.260442 3729.480834 4009.434890 243.024173 1144.025838 2373.081591 160.679357 1978.876104 -75.578429 851.554994 3157.984754 1676.849591 1195.580518 1191.240592 1725.086722 4047.042558 2040.828940 1339.865632 1667.009729 17241.488138 16650.474018 15695.258392 14826.279539 13815.931705 15320.179099 14086.260384 12479.484017 11293.280999 7982.924400 4264.910032 1532.318240 2113.015377 17163.615426 16048.017070 15476.835261 17290.015806 14506.960853 14656.041087 13844.172112 12968.343676 14273.071979 8860.069936 2212.747856 1713.881024 2032.438170 16829.089369 15448.215615 14912.692883 16339.613506 13474.930462 10388.267775 8058.683193 11484.939423 4603.792870 1624.357377 5552.532319 4677.249642 6985.140348 16506.250196 15014.582911 13335.078127 15254.007094 16348.155373 14177.737660 12063.390613 7480.208897 4435.336835 3201.904482 186.792581 1253.272587 1189.433343 16495.673893 15753.844360 15437.748721 17889.030664 13258.600773 11155.265720 12092.808885 5157.125004 1793.606598 2877.485688 3691.651484 12200.060087 2430.881615 16540.908730 16196.875995 16578.417858 15135.421950 14663.796682 15255.967389 12233.374930 6647.170814 1005.042626 1336.702677 7916.231596 4116.617069 4297.290039 16468.201680 14828.831692 12620.360329 16260.246291 16808.634262 14863.425497 8970.662314 7674.995838 3574.822505 6417.542024 6314.088395 3856.657126 -847.492598 16732.358988 15786.366708 14508.546107 16330.551326 13972.664979 7166.329553 5878.452098 4984.245180 3779.359820 4433.536660 3321.757363 2511.193934 2542.080132 17127.268112 16383.597181 14452.129887 16117.592996 12797.857967 10057.322935 9858.045858 10949.248665 7843.118456 5305.079521 3709.466826 3129.747557 579.695636 17292.959906 17111.342753 15866.924301 18170.566123 14879.908887 11527.591640 13979.624345 9584.680261 6250.505090 5402.210632 3359.876143 7350.105809 9983.647581 17183.017388 16369.010837 14127.548821 17171.573291 12994.158960 13771.515217 9826.050274 8838.383854 6398.941982 12514.880270 4288.689972 6756.346255 4677.005538 17262.171026 16615.658994 14263.182694 16790.298934 15637.153079 13791.426119 11642.693144 9519.198592 5931.642596 8603.789721 8838.550205 4395.446176 3049.969448 17610.604543 17426.062867 16712.238327 18083.788115 14596.244433 16502.300433 10602.266544 12443.192207 1982.629376 3257.180632 5782.353642 3870.197866 2337.771033 17830.264480 17610.302880 16429.848910 17368.134796 12809.401259 11762.848106 14410.790234 13199.799233 4898.570157 11819.409645 5409.546432 6873.765099 3726.409739 17842.187304 17357.798601 16128.421157 16736.121205 15576.958198 15655.101800 13870.311509 15028.281829 10744.212731 13045.730904 4433.088643 5807.954984 5117.548113 17886.955915 17201.033206 15637.274668 15979.251039 16463.486787 17533.295269 16153.417445 17210.508897 12649.851058 11299.679965 7725.700367 892.939527 1526.516475 18063.739443 17703.618076 16769.461645 12469.221030 17803.850411 17952.015063 12701.022685 13446.677482 10307.841076 7721.383801 2604.948032 3142.161445 2403.159712 18098.010759 17583.329953 16849.521084 18215.101559 16865.521577 15327.809583 14712.805500 8984.526113 13272.755635 13786.499217 4651.557154 4718.634531 18171.683577 18058.146779 17564.670566 16949.680167 15836.743930 19880.197881 17715.815718 9485.058809 12685.419452 10593.103338 8285.231601 8695.774286 6600.813919 3986.188194 18240.029587 18184.807532 17593.545878 19223.918674 19147.219396 15539.618458 16045.511107 12971.354210 10678.651093 9659.427856 8151.056309 7083.020643 1228.143949 18407.964565 18596.070193 18092.758910 18184.475041 18327.389681 18549.129761 14864.310533 7592.386001 11683.622475 8385.338791 5361.981537 3256.370777 4090.352559 18233.902135 17795.605523 16247.518218 19434.272993 18738.844693 17387.402617 15334.335166 13507.161462 10934.489442 8823.227599 6787.853775 3796.437099 5727.844007 17957.054648 17339.807815 15992.647361 19416.388625 17457.818294 17547.882392 13674.371346 15497.787083 13016.564768 9336.057150 5325.814682 3065.726203 2046.311842 17830.572200 17628.315217 17888.028580 21373.781642 19654.619314 15783.582793 16331.188278 10840.957250 9147.479351 8644.400460 5676.242380 2576.464060 2184.037455 17911.902096 17484.205064 17176.814015 19753.911048 17678.518646 17249.142673 8867.369346 11691.198680 9475.956419 8459.707699 7561.510692 5305.730085 3190.033013 18192.920272 17958.440407 17854.156629 18311.998244 19610.939986 11560.143469 15290.752502 10921.336544 15185.876362 8573.670529 7251.081742 6768.621282 1808.673487 18464.974825 18488.052203 17938.102066 18125.979963 19133.428524 17239.200954 13986.538890 16816.644466 9267.797283 12628.321455 2075.522500 4066.432012 8284.626611 18637.610070 18488.449479 18411.229693 19861.439660 17079.743498 17496.062145 11911.724252 9754.975118 9759.907044 8431.764471 3850.963455 7315.364870 2255.429065 18647.849185 18052.022470 17080.758011 19801.748642 18020.986639 14400.535255 18280.465664 14080.363891 11716.940783 7331.355075 3589.074961 2684.639627 1698.342494 18544.290720 17713.635025 16753.748922 19324.415135 18064.532681 16535.891464 18495.155402 17377.662655 11235.805821 8846.236466 5082.009955 6122.792577 -745.046989 18453.106238 17875.343144 17433.456263 19824.403648 18421.575072 15317.036374 15615.867129 16841.800106 13943.095857 9744.625341 8691.176856 4198.940832 5463.221819 18563.032235 18259.375401 18210.179915 18909.989214 18776.520026 18848.928619 20354.207527 15394.748986 9066.978703 2321.049232 7196.997344 6964.397357 2895.301333 18893.944741 18650.960590 18666.139611 19944.316303 18574.842119 19954.245212 13663.680608 13802.816148 11783.291057 6728.255211 5345.682464 6984.906891 6668.619527 19309.553890 18944.883550 18372.563547 22642.010925 17832.723249 18729.855113 15199.688502 14707.748130 16475.601893 11883.127397 10988.061292 3996.091691 2966.169838 19836.718461 19388.964619 18814.416528 19679.138870 21908.870667 14035.137167 18745.532846 16299.757905 13186.043704 12346.357252 10346.757608 3286.158616 7734.400839 20235.660527 19894.966393 18872.122343 20017.241312 21035.387645 21526.472403 19351.351297 16908.037313 12065.629891 7176.403683 6983.277037 5464.481776 4863.043944 20372.991215 19801.763697 18413.582249 21298.913613 22371.545504 19281.570329 17382.277916 18903.371913 10231.939270 7521.826892 7063.718331 7758.017323 4801.323074 20572.707125 20794.172180 20753.270365 21358.935538 21236.909249 19446.254827 18517.062768 13846.253132 8872.447000 8802.920705 8423.723766 8327.729666 -1314.104548 20671.084725 21557.760255 22971.603221 23943.444806 22714.369334 18376.860569 13903.606008 9335.715731 9204.004362 11259.707118 6131.896108 4191.143289 2778.322697 20458.830007 21458.557043 21345.331306 22090.203566 22252.537768 21714.139271 17020.224576 11905.651150 10670.967231 9701.859513 3799.166474 2551.577836 3484.202143 20209.588951 20022.217869 18925.783482 25619.518351 22559.817088 20284.002224 18711.058107 15275.203992 15059.380060 14578.163196 9807.476455 7693.350405 671.589141 20188.956710 20057.153932 19656.526394 21607.687684 21965.778187 22342.204679 18829.189827 18174.795862 16223.840368 14041.245290 10262.194377 11524.987504 9676.142514 20258.668494 19829.234148 17991.735492 25706.684447 22275.425656 22748.427174 20586.628891 16548.409909 15978.523377 9484.696628 9981.800283 10239.143789 7541.265396 20335.233924 20531.351044 20418.701485 25945.390458 21057.647444 23309.022926 20565.017584 15651.657946 11285.237207 13416.331765 7190.247361 2418.251194 2801.025059 20184.798627 20318.819527 20610.309576 24861.159624 24510.713044 20238.687671 17757.517605 14943.997865 11598.929839 9349.519971 6186.160618 530.561842 8712.027871 20104.071736 19579.053898 18735.742079 26682.321280 25263.804629 22596.825531 18259.239580 17029.625629 14813.059544 11470.217687 7505.895993 6270.721660 -878.647977 20530.974684 20833.416336 21690.558530 28085.626782 22458.677511 21134.625402 17392.834721 18598.920536 15705.176087 12670.622980 9475.949763 8446.020564 -800.701413 20933.470375 22613.202939 25783.338629 25798.010572 23014.459452 21723.285422 21643.353298 18884.281842 13779.435207 13279.409040 7159.622048 3666.472916 -3658.240657 20719.462772 20584.702831 21969.512764 26720.551837 26463.650932 23060.679862 21644.213655 18678.998888 14772.248511 12546.344129 9730.657086 9176.709246 8380.251767 20594.225575 18471.471604 17353.820296 26423.693498 28024.901831 25053.820576 21775.349121 19232.411480 17647.044379 15468.117281 9190.124618 12766.992782 7175.222590 21195.675916 20714.375672 20520.184886 26107.940585 23525.666350 23923.895604 21969.649065 20912.348592 17346.391512 11371.120957 11575.813893 8103.241740 19694.069271 21889.266205 22988.041319 23566.949169 25780.549566 23722.947762 23785.089142 22732.540995 20084.440865 19415.795051 15485.046049 16538.913986 13355.440989 20374.951844 21893.587412 23034.103020 24500.611802 27294.541737 26129.989500 23933.277097 23177.292838 21245.167786 17142.805308 17099.674808 11428.889415 8408.844219 -6.847287 21661.875338 21821.195899 22547.054005 26819.294415 25307.977756 24022.785078 22675.588755 21694.830955 18084.524064 12256.720788 10149.685239 9686.565382 2334.697383 21943.766622 22547.530089 25090.219361 26690.240047 25003.986955 25590.953495 25030.123636 23641.364911 20598.669520 15339.949068 13821.320630 14136.870991 6864.755340 22277.707984 23524.145663 25946.859407 26258.188343 24843.833003 25334.668211 23577.245885 21999.395139 21442.210636 16784.087880 10812.495268 14571.800154 -3186.542096 22219.486989 22179.199123 23790.870096 27817.711285 26231.981103 26419.178044 22540.369427 27617.325401 21650.667592 15438.042584 13878.178028 8567.210162 10111.124171 22503.212788 20949.365272 20193.110580 28143.021639 26952.890320 26733.857476 25881.486996 24709.122452 23132.803971 16627.848754 12134.574209 2882.446180 9896.506487 23246.430271 23136.926687 22613.525538 30465.824574 28005.346146 27269.881877 26593.724216 25976.339899 17700.994268 14130.605107 6659.877757 10094.106724 6986.988562 23763.050478 23839.190651 24790.464943 29465.540627 30305.754003 28216.935004 28723.495184 27223.747225 19992.925953 19414.722097 13520.571789 9659.187412 4718.532373 24167.014074 23955.960681 24289.811325 29313.510005 30688.834837 26571.049664 28612.450260 26878.263789 21059.097826 13310.159835 11975.879545 4031.329128 8100.504701 24659.748418 25029.075995 25388.459031 30084.391093 30579.789064 30951.889332 28047.080734 25581.547604 18941.549036 12281.538835 4263.177398 6377.524118 10681.890649 24995.871302 25522.747982 26547.638449 34228.753646 31598.973884 29663.811247 30991.686048 24271.927147 23293.285469 16433.882302 13248.376557 4002.228884 8796.059014 25149.657126 26091.885791 28272.046788 34082.076193 31997.721788 31033.489349 28174.577178 28282.676888 19798.185484 20234.349872 8908.287298 8214.430833 14592.218297 25277.164943 26445.130692 27791.025853 32954.667992 32556.861799 29583.507342 29978.476213 22977.837522 22677.734529 19692.765577 11888.001984 10688.558335 14189.191030 25563.974613 26604.352288 28161.675429 33703.962590 32061.344293 30633.054717 30013.966579 24960.434384 20390.702854 20216.481514 14123.849090 12995.378850 5249.450330 25899.004240 26801.498593 28935.136657 33842.464292 32009.494717 31835.907290 29855.020942 25845.829350 25405.399755 19553.673277 13243.282147 9235.000806 7255.842554 26092.978652 27165.685434 29460.130169 31703.964403 31324.622475 30796.355800 29719.530017 24787.639022 18867.597241 16578.154225 13609.223250 11019.717091 7628.430934 26416.820511 27081.954192 28906.095442 32429.660815 30584.973122 30465.300518 29120.798077 25990.407779 20221.161317 14628.514908 15463.058777 8723.701490 16806.600580 27130.518842 27931.955609 31067.466590 32530.618610 30769.862596 36371.348515 28588.846647 24040.862938 23912.309672 19671.932610 17141.485148 18120.365827 11092.496804 27910.663759 28415.597888 30698.926036 34123.125401 32160.983685 34556.562330 30667.670788 25634.453447 23867.906797 20315.791187 11924.520157 11395.442193 -21545.374665 28499.658013 28992.368449 30711.547854 30298.557290 30459.949612 29306.806540 28749.633849 23808.505176 21314.968753 17365.620528 14740.167995 16907.944129 11641.306501 28917.089085 30278.474654 32231.912334 32544.298761 30457.903128 30617.199139 27909.276563 23509.696211 16749.463384 17285.412798 14561.736828 12273.275023 13274.407570 29241.103168 30684.983775 32486.582186 34580.782946 32697.934501 28247.760134 24396.226342 22951.176117 20126.426529 16554.566432 15962.040341 12402.080289 24312.479311 29379.894381 31588.655183 35160.840659 35436.709770 31483.247182 28257.329823 25976.628812 23839.895006 19528.760451 19853.271057 11587.988500 20535.965040 16832.800022 28957.861132 31781.385191 35239.477685 30801.759437 30467.914964 24811.875621 21849.863983 22661.399269 16555.829964 13420.054144 18540.074955 17871.191333 17660.832219 27841.175608 31870.135246 38423.342604 26215.740764 28438.555561 26133.906339 25761.908401 18151.417427 20255.780492 14670.687327 14227.587184 14168.415906 14040.356669 26233.473038 29873.277375 35282.738706 29269.823707 27996.026169 28096.948216 20761.948461 27294.220975 18487.145923 15968.946591 14433.581470 8755.080199 17962.147039 24952.573486 27557.791063 28204.723284 25523.997086 26577.702632 24255.759663 20716.707503 14031.629378 22636.231541 19862.983566 14795.375501 14017.654004 -1662.833819 24184.149109 26184.780200 24109.275689 26769.105409 25257.421427 26771.737171 25429.305721 13691.967136 20314.073044 20807.212988 14976.482070 19861.108264 23097.048469 23014.216384 22665.616711 19702.100261 25039.063020 28142.850127 21248.413103 20965.269395 22293.640467 29459.699421 22713.424351 16485.255352 14424.183334 10521.879619 21472.565244 21779.452986 23143.211703 25022.957199 29235.179681 24250.085536 18838.241076 29844.537615 23996.034872 24198.039257 27781.644198 12210.780070 26229.663018 20249.581417 21251.614871 24082.448560 27111.249486 25376.269098 28733.437725 26126.476569 28844.317702 25194.302353 22589.627056 27070.368336 19470.009941 19692.100977 19787.686791 21999.797406 25602.802813 26736.310682 32367.801988 19073.120915 22898.879600 23586.865476 26320.399481 27396.507276 23176.628316 21357.658035 21818.979865 19456.949316 22348.692170 26264.018146 26220.998153 26844.255232 23388.863357 24525.082313 26037.700205 23336.492648 28022.123329 28118.863626 20920.723382 22746.172222 18993.776010 20545.378790 20832.002150 25337.675815 30359.640804 21949.533615 22668.633131 23966.905875 29883.460767 25858.316637 21965.786652 22470.144500 25518.925760
</DataArray>
<DataArray type="Float64" Name="Velocity" NumberOfComponents="3" format="ascii">