<VTKFile type="PolyData">
<PolyData>
<Piece NumberOfPoints="2177" NumberOfVerts="2177" NumberOfLines="0" NumberOfStrips="0" NumberOfPolys="0">
<PointData>
<DataArray type="Float64" Name="Pressure" format="ascii">
 22836.525443 22820.056544 22669.657956 22262.228074 21642.619197 20983.922706 20337.534258 19632.072252 18745.193857 17671.521466 16574.031446 15583.743764 14564.666136 13323.686706 11817.313723 10133.342698 8366.616891 6569.848889 4790.656881 3134.527675 1671.515157 498.719099 -266.804498 -661.533865 -823.724719 -881.553150 -922.172064 -995.588456 -1121.606925 -1294.016026 -1488.901312 -1679.366222 -1843.654345 -1967.450055 -2043.893184 -2072.403080 -2056.957337 -2004.298278 -1922.374663 -1819.167032 -1701.924151 -1576.761441 -1448.535017 -1320.897621 -1196.454496 -1076.958051 -963.503040 -856.705886 -756.876137 -664.229882 -579.293539 -503.718859 -441.220433 -396.084532 -369.043567 -357.453479 22985.968482 23022.182452 22901.110728 22259.334405 21314.408980 20625.707504 20196.580070 19783.507982 18941.482099 17593.546052 16251.318155 15419.948039 14654.078103 13437.274017 11785.282495 10043.719523 8275.783188 6424.717743 4596.693722 3080.198564 1560.165048 210.239496 -541.800234 -841.614980 -931.659001 -942.315161 -951.876219 -1003.563473 -1119.487035 -1292.220914 -1487.952476 -1678.644449 -1842.887721 -1966.631824 -2043.088099 -2071.674895 -2056.347578 -2003.824459 -1922.035308 -1818.948344 -1701.806092 -1576.722331 -1448.554455 -1320.957907 -1196.540720 -1077.056558 -963.596384 -856.757363 -756.781536 -663.671825 -577.334074 -498.496064 -431.154156 -385.486778 -360.598560 -350.816022 23182.469657 23549.758740 24049.169735 22363.048688 20232.055749 19702.607463 19900.903164 20732.700410 19813.031025 17544.159214 14862.974775 14812.761961 14412.242059 13267.679929 10994.165611 9666.136067 8175.933455 6431.950671 3609.547738 3514.519117 1262.025066 -374.221718 -955.409610 -1062.189293 -1055.663569 -1010.552507 -983.396777 -1003.771626 -1102.811851 -1287.064589 -1486.946079 -1678.793220 -1843.486577 -1967.400362 -2043.878214 -2072.398454 -2056.955857 -2004.297782 -1922.374487 -1819.166959 -1701.924094 -1576.761327 -1448.534669 -1320.896492 -1196.450800 -1076.945943 -963.463377 -856.575979 -756.450820 -662.835726 -574.766350 -488.107306 -407.457220 -364.967824 -346.113201 -339.729601 -359.615618 -340.085116 -331.999632 -314.349095 -307.352291 -303.354172 -269.762149 -268.079351 -266.510371 -233.251722 -232.798830 -232.250325 -201.571315 -201.475971 -201.264866 -173.807118 -173.814079 -173.713262 -149.440714 -149.475102 -149.411976 -128.095241 -128.134637 -128.086443 -109.450543 -109.488362 -109.447849 -93.218553 -93.253027 -93.217729 -79.135695 -79.166519 -79.135443 -66.960264 -66.987576 -66.960187 -56.471200 -56.495262 -56.471176 -47.467165 -47.488267 -47.467158 -39.765643 -39.784071 -39.765641 -33.201965 -33.217992 -33.201964 -27.628278 -27.642160 -27.628278 -22.912468 -22.924444 -22.912468 -18.937045 -18.947335 -18.937045 -15.598025 -15.606830 -15.598025 -12.803809 -12.811314 -12.803809 -10.474096 -10.480466 -10.474096 -8.538813 -8.544198 -8.538813 -6.937105 -6.941639 -6.937105 -5.616364 -5.620166 -5.616364 -4.531323 -4.534499 -4.531323 -3.643212 -3.645853 -3.643212 -2.918975 -2.921163 -2.918975 -2.330558 -2.332364 -2.330558 -1.854258 -1.855742 -1.854258 -1.470139 -1.471353 -1.470139 -1.161507 -1.162497 -1.161507 -0.914445 -0.915249 -0.914445 -0.717403 -0.718054 -0.717403 -0.560836 -0.561360 -0.560836 -0.436891 -0.437312 -0.436891 -0.339135 -0.339471 -0.339135 -0.262318 -0.262586 -0.262318 -0.202181 -0.202393 -0.202181 -0.155274 -0.155441 -0.155274 -0.118821 -0.118953 -0.118821 -0.090596 -0.090699 -0.090596 -0.068819 -0.068900 -0.068819 -0.052075 -0.052138 -0.052075 -0.039241 -0.039289 -0.039241 -0.029428 -0.029465 -0.029428 -0.021936 -0.021964 -0.021936 -0.016213 -0.016234 -0.016213 -0.011820 -0.011835 -0.011820 -0.008407 -0.008419 -0.008407 -0.005693 -0.005700 -0.005693 -0.003439 -0.003443 -0.003439 -0.001439 -0.001440 -0.001439 0.000500 0.000502 0.000500 0.002568 0.002574 0.002568 0.004972 0.004981 0.004972 0.007941 0.007955 0.007941 0.011750 0.011769 0.011750 0.016726 0.016751 0.016726 0.023268 0.023301 0.023268 0.031861 0.031903 0.031861 0.043084 0.043138 0.043084 0.057626 0.057693 0.057626 0.076283 0.076364 0.076283 0.099952 0.100049 0.099952 0.129612 0.129725 0.129612 0.166272 0.166402 0.166272 0.210900 0.211044 0.210900 0.264304 0.264457 0.264304 0.326952 0.327104 0.326952 0.398733 0.398870 0.398733 0.478614 0.478715 0.478614 0.564198 0.564232 0.564198 0.651141 0.651064 0.651141 0.732412 0.732166 0.732412 0.797370 0.796881 0.797370 0.830642 0.829811 0.830642 0.810761 0.809464 0.810761 0.708571 0.706654 0.708571 0.485368 0.482643 0.485368 0.090796 0.087036 0.090796 -0.539516 -0.544579 -0.539516 -1.486520 -1.493201 -1.486520 -2.850505 -2.859163 -2.850505 -4.753955 -4.764999 -4.753954 -7.344442 -7.358326 -7.344441 -10.797441 -10.814662 -10.797437 -15.318926 -15.340015 -15.318911 -21.147615 -21.173126 -21.147568 -28.556680 -28.587160 -28.556529 -37.854758 -37.890672 -37.854266 -49.386113 -49.427644 -49.384508 -63.529954 -63.576377 -63.524723 -80.699352 -80.747032 -80.682301 -101.341709 -101.377609 -101.286141 -125.947685 -125.927984 -125.766621 -155.092446 -154.870179 -154.502484 -189.585803 -188.658043 -187.665311 -231.192630 -227.606980 -224.909624 -282.262707 -268.803097 -262.413945 -311.750419 -289.249042 -279.069881 9265.537211 9548.358279 9443.890202 9373.192135 9278.617509 7528.086150 6436.073251 6279.522035 6249.950325 4327.911205 2169.257226 1179.690546 1402.736463 1289.462739 971.708475 601.774261 233.545094 -115.536682 -441.751259 -744.795218 -1024.520865 -1280.464150 -1512.059718 -1718.836507 -1900.484128 -2056.843570 -2187.882932 -2293.690706 -2374.493696 -2430.692156 -2462.899653 -2471.976051 -2459.045706 -2425.497225 -2372.964868 -2303.294271 -2218.496588 -2120.695587 -2012.072023 -1894.808891 -1771.040430 -1642.806879 -1512.016295 -1380.414112 -1249.560499 -1120.814783 -995.324399 -874.010671 -757.527339 -646.107787 -539.101259 -431.337727 -339.207034 -300.613548 -283.878685 -277.386212 9199.179270 9336.437950 9252.458398 9098.867092 8581.574085 7201.386148 6342.779480 5920.008488 5391.456603 4189.660449 2985.958467 2174.941618 1722.894853 1370.822626 994.082554 607.963279 235.441111 -114.777303 -441.293921 -744.412529 -1024.148264 -1280.084547 -1511.670725 -1718.439857 -1900.082204 -2056.438584 -2187.477095 -2293.286605 -2374.094563 -2430.301922 -2462.522800 -2471.617338 -2458.709837 -2425.188524 -2372.687012 -2303.050095 -2218.287972 -2120.523428 -2011.936259 -1894.708588 -1770.973893 -1642.771804 -1512.009968 -1380.433736 -1249.603941 -1120.882682 -995.426779 -874.188399 -757.922832 -647.209560 -542.531479 -444.951437 -362.866339 -315.761915 -292.813108 -283.904061 9126.250933 9156.552844 9167.196515 8980.344876 8343.196751 7328.862658 6465.809484 5751.638819 5017.396978 4127.457459 3220.920278 2470.060188 1902.995866 1439.005660 1014.690812 613.423481 236.612587 -114.723705 -441.526548 -744.729416 -1024.500634 -1280.457747 -1512.057664 -1718.835845 -1900.483915 -2056.843501 -2187.882910 -2293.690699 -2374.493694 -2430.692155 -2462.899652 -2471.976051 -2459.045706 -2425.497225 -2372.964868 -2303.294271 -2218.496588 -2120.695589 -2012.072027 -1894.808905 -1771.040476 -1642.807028 -1512.016783 -1380.415706 -1249.565714 -1120.831835 -995.380149 -874.192922 -758.122867 -648.057039 -545.401131 -453.418322 -378.602903 -328.207836 -300.306636 -288.921613 23271.265539 24169.096691 25401.062411 22170.278327 19281.363394 19892.688983 20050.428698 21512.824979 20384.180884 17551.298827 13580.474342 14074.819577 14204.541641 13128.659528 9926.619173 10081.942638 7714.620662 6127.277252 2673.812340 4769.317199 -428.506397 -1725.029366 -1118.789240 -1130.643347 -1090.954349 -1029.136092 -991.013330 -998.739552 23449.804341 24965.880890 26126.977711 23805.851357 21616.725124 23336.877129 23308.197401 22811.664962 22849.342895 27331.025930 25384.200092 22393.806372 23832.405108 26181.738482 22375.473036 21726.523425 22191.302468 23270.732895 24137.063813 23896.916904 24458.145663 23910.311522 27077.174494 21308.572361 24875.265834 20907.279449 11608.621325 11407.834881 23670.324895 24567.389801 24444.976055 24960.775253 22560.099027 20589.788519 19975.419205 21916.005388 26925.123948 13805.133257 21478.187574 24500.948392 22980.895396 22356.563078 21351.651483 22319.001358 21876.454177 12918.525498 25326.018867 21416.350065 23890.405623 24841.699686 23115.499235 21277.252317 17180.510593 11178.185408 19442.680384 16081.589885 24010.288809 23817.564062 22028.783140 20467.388342 19048.910712 21651.356858 21148.715967 15923.791568 21261.209484 19622.045867 22464.055506 22201.399125 21723.680058 18100.814958 21309.797820 11539.387169 18696.842274 5343.256820 20018.956753 21322.424400 18296.745656 22119.589058 25588.331186 18813.163108 17809.272140 20536.493326 17475.549065 7783.254406 24513.621616 23421.498039 19997.603585 20510.789457 19696.233595 23514.099170 23093.428487 21365.167944 23550.110526 22504.432468 25491.121918 11105.814926 16425.011652 14092.428765 20375.237314 20517.877709 19952.531950 22587.571172 21391.412769 22101.413323 14445.267968 25664.353846 14573.255287 9746.243043 8491.945474 7644.974824 17210.572959 15193.870456 24513.989102 23423.671338 20438.145604 20534.442900 23470.401171 18421.415179 24313.696502 21868.937111 21720.377279 16060.947824 11806.884176 21391.168431 14155.926609 16203.144692 16727.294570 15667.545926 11768.008451 6190.575527 7553.857219 7213.739164 17808.293015 7980.157223 26223.728455 12700.341408 14568.342649 14693.654079 7194.395233 7924.626132 23665.767807 23297.358005 22023.551781 19640.401368 19866.282936 13526.106804 23260.086770 13763.593353 22517.941262 18520.029509 25432.681740 22836.966795 17608.427112 11837.470375 15515.913200 15037.864689 17724.555417 11068.719483 19737.388330 19178.308115 22594.089093 11266.336487 5123.705977 9522.694228 6282.229588 9571.658411 6187.584338 13566.830647 22676.607227 24764.125282 28965.827253 20791.367472 24736.285064 22871.513547 22496.943426 10485.123615 22977.447504 9725.975779 11285.896397 11087.997340 22615.227201 19481.823825 20948.826029 16621.378515 10100.333498 17065.604278 14619.186295 12338.747003 12550.937309 19899.894750 7154.005259 17297.432816 21351.961633 11229.543356 7410.670060 4401.467428 22147.684571 23746.272444 28659.056236 21612.489160 22067.157167 22770.157612 20410.818229 21864.501655 26224.420717 21821.484537 21353.103348 19391.489107 18649.357034 13501.683873 9025.154842 22911.198927 16048.711971 19104.203369 3888.136381 9126.275638 10024.314214 10034.705552 8759.766910 7061.139836 15607.197942 4369.257257 13507.544731 6939.108090 22368.127909 22034.248737 25370.364416 21817.179092 23918.019599 24115.652698 23037.506541 18887.752127 14623.189900 16494.098564 14744.000805 9308.369767 16804.102982 20117.867750 8164.756046 13518.346357 9345.986805 16271.885627 9643.477601 20059.348196 9081.707071 8860.883822 10238.432417 13511.090043 7566.352861 5134.919292 6090.593388 11522.518233 23079.785723 22577.162753 23830.734863 24326.491932 20699.578183 21885.031403 18161.829035 22336.451654 8988.178398 22148.518043 13699.477972 19231.853916 9834.048317 10903.831180 15681.075569 9620.061777 9845.682656 13647.345442 13785.958864 11898.234077 12314.798386 10690.743430 10915.498092 9745.595498 10326.676414 11444.930469 12605.995435 10497.903575 24017.838107 24273.556500 25694.611174 23823.754981 21161.629059 22928.291450 19039.794733 21781.213623 15212.229571 15865.057952 10425.156545 14334.228786 16524.406913 18293.108518 9972.607175 11700.008963 16165.745932 5028.055455 7786.103669 9617.251296 14436.110442 16193.055266 10024.475788 13703.966008 10332.853330 10774.603945 4431.995548 1660.760632 25057.189190 25424.771358 24348.117545 22476.386206 22711.846172 18850.511203 17134.916117 17894.454205 11805.603068 15760.409256 15133.304658 17114.664830 18417.765656 3580.668685 12191.434913 4114.285316 12958.173015 8567.209751 7063.595636 18139.986162 10480.953770 7356.748521 15382.097021 8691.854317 10196.198342 4688.998915 7732.664748 11389.546967 25644.964667 25705.170802 23956.842631 24104.959480 20849.428253 20380.778135 23279.101087 19310.853438 14736.320259 22486.836615 12470.562986 8757.703600 7522.395695 6719.523221 6982.290388 8096.378426 10793.318164 4500.607706 5046.140058 8130.228440 8910.775181 4025.211405 5833.609880 15885.684354 8315.147743 5758.594718 11222.876558 5371.643693 25246.704095 24626.798243 22519.864128 23437.797217 23306.857794 24047.665717 21215.924435 20203.418545 21663.500536 14782.737405 12112.559301 10982.600883 5175.098840 17776.623333 5446.960179 6597.904589 3044.348600 3349.285895 532.012620 7936.932820 9389.949924 2317.505368 4813.199454 6287.902311 11526.713098 3005.367812 5321.574803 4812.689922 24546.835990 25175.746673 25327.164040 21938.958126 22140.174323 19944.400343 22443.106823 18473.632928 14985.401646 14652.833414 12226.600701 3407.918465 4900.719763 24056.969049 25302.366096 27109.997585 22060.471728 20157.043376 20240.586404 20708.350248 16198.525362 18663.839967 8122.334546 3672.699721 11003.000290 4144.210044 23599.361554 24030.078466 25664.708350 22420.177198 19104.726595 14424.767089 8450.576616 19673.072091 10783.908210 6677.454256 6674.677744 9716.706160 7756.279805 22941.812464 23757.969349 24702.495739 20443.318507 19967.061483 19940.183854 15249.665363 17363.043857 6594.903495 9263.124870 4764.218133 6166.376619 6237.316395 22262.162025 23007.441704 24029.305645 21593.205129 20135.174907 16046.026507 14281.261044 10597.373472 8080.339488 7847.992981 11165.753988 3603.951126 5.260511 21973.846421 23035.522750 24761.288275 21857.151669 19201.679878 20559.145040 12413.154390 16662.417656 4650.977196 3203.234500 11395.931690 4168.671212 5602.367585 22079.198187 23120.088273 24217.443322 21842.241841 18626.542818 20094.864815 12526.662588 11355.957869 7869.309571 14141.559189 12706.309338 5046.060814 2034.973297 22342.751734 22892.326309 23368.477518 23747.078834 18664.797055 5122.235209 8086.335636 4168.349077 7351.187439 11502.716150 7989.550388 7954.411284 4127.808470 22329.349796 21959.732443 20333.558608 20580.725889 16830.113825 9529.187568 12489.833050 14021.655483 10480.750257 9082.306903 5668.029476 5468.072444 3267.371992 21984.781392 20328.681779 17846.730125 24716.023168 18175.034263 19885.240101 20056.899610 8164.834327 9824.959516 7897.386876 8108.383788 8954.579819 13805.859824 21604.139319 20628.809664 19933.844317 22789.564893 14550.266839 14998.743977 10012.899264 9804.218523 9933.983222 13570.913854 7670.253003 7101.641048 9330.726577 21313.646114 21140.570463 20691.268355 20322.155632 21356.394159 17517.250812 15111.204541 14125.630540 8820.741610 10760.024485 11655.519619 6261.387945 4549.397865 20885.328647 20598.757685 20497.725325 21617.374332 17718.226607 19359.983062 13975.033331 14990.367634 5566.716163 12086.028440 12197.975168 4565.346277 2599.749613 20520.101602 19289.332566 18045.033826 19844.927082 15471.812364 18345.555850 18136.595480 15692.246517 6901.760758 15194.220675 4503.466766 6572.856252 3877.370479 20576.144698 19994.874389 20721.460994 21492.681745 17468.321887 17275.555839 18678.285530 17336.742217 10700.176663 15800.578931 4366.205099 6062.794317 3735.153767 20710.291145 21433.546549 22419.109916 18567.949388 18622.052869 18196.420689 20048.161163 17712.056398 11741.123403 13298.018395 7243.384527 2732.803446 2360.191274 20545.412233 21546.479745 21626.548440 13818.891049 19449.319383 18790.592077 13436.266466 16231.139819 7483.364092 9082.279780 5925.517515 6958.241311 4295.436420 20241.084489 21084.965738 20629.604543 19687.571802 20182.397673 15364.317559 12668.593820 13846.787340 10023.129681 16166.698266 4894.468242 6519.103382 6130.002539 19896.227219 21088.099606 21184.657181 19497.986388 19268.010326 17871.499348 12498.931036 13763.218624 12982.312015 5945.762295 9307.959675 9718.720209 3908.712684 19387.494903 19477.665313 19135.599809 21597.606796 20362.615015 16663.048307 16222.217797 6336.619503 9538.951099 10987.072984 11642.503073 4306.191463 3410.623086 19038.913076 18207.774704 17416.729586 20970.414840 17310.524298 17015.220605 15047.863751 10145.736016 15061.815636 6902.748838 7072.237395 3290.769860 2608.233769 18952.942828 18758.956306 18122.400753 19206.840041 16583.035385 16914.996717 10439.727902 9912.002153 11992.106732 8514.883611 8125.708139 4839.695641 6167.793695 18692.881876 18752.453284 18651.174780 21624.197506 16867.022008 16866.733587 15413.069728 6997.271352 9255.787150 5461.047367 4106.425444 3956.541505 4944.019070 18243.401544 18686.656443 18690.489113 19387.047928 17119.580482 11746.039164 12095.749458 9943.833139 5765.699629 7150.736842 4349.709430 4466.579573 3617.058213 17824.060073 18327.667098 18323.926572 16090.774491 17271.308263 15227.809274 11892.837716 12340.844921 7954.670762 7269.127387 8923.218028 6339.153932 2646.963662 17502.455937 17508.278810 17866.553986 18769.148837 18155.471285 8095.562993 11411.496241 10227.580492 11843.415647 9974.431316 5593.335878 7651.323592 5261.208117 17317.361791 17321.654380 17661.736129 16881.952086 17043.375267 14534.507583 6965.685600 15299.821793 8015.524572 9568.189363 5584.688349 3771.504527 2533.732960 17145.161476 17713.355341 18016.272849 17695.290090 16481.069800 14531.889209 4873.021014 13902.702480 4897.166518 7485.268046 8135.525192 4615.644762 3343.100612 16816.927268 17234.696779 17338.828890 15667.616908 15818.787253 10390.650652 13803.326750 13514.053629 8360.364803 7401.778860 4267.350422 3693.433130 1970.755819 16438.719768 16072.805659 15017.332572 16240.193455 17518.272973 16894.936455 16237.884036 14165.511808 6153.036085 7094.325721 3481.320868 4637.366986 2981.907088 16165.666532 15717.675514 14954.301924 17875.568444 16081.744183 7525.424976 8909.250256 15470.485067 15031.615767 7846.443603 7825.432258 5060.273861 1763.031258 15820.908079 15400.525806 15046.631384 13916.295054 13847.138104 8972.159033 11511.206997 13725.070662 6752.388515 4452.278203 5461.324350 5507.325889 4073.475580 15438.840170 14760.282647 14269.381050 16855.792336 15029.795596 15632.898415 11581.307434 11702.214899 9416.343079 6487.444535 3620.596460 5912.079585 4482.179269 15070.044285 15035.327035 16253.783109 16282.263122 13702.959264 13532.227831 11623.458145 10164.770336 9341.645514 9108.325870 8309.651267 3482.203679 4006.794863 14681.927198 15172.711874 16977.669299 15558.294162 17541.999018 11879.444778 13291.764279 10753.075294 6838.025614 9178.711673 9514.784272 2058.749545 4610.156397 14592.727966 15050.070756 17445.754320 16808.605195 15253.133392 14773.210818 14159.221997 11513.705166 6539.720282 5200.616687 6787.867278 3363.776245 3784.488525 14932.558556 14763.442195 15071.995465 16389.086948 15730.221854 13719.442852 11348.350352 12180.425706 7505.567421 4938.494520 5545.452897 3288.495309 1242.862073 15437.507327 14609.017757 13950.763552 16070.107009 16068.075426 12581.419986 16408.629760 6176.490269 6016.620712 4834.626884 4131.457144 5510.257527 1470.802304 15841.096114 14701.347660 13711.470131 14728.754902 17380.846338 13149.615908 5417.759832 6387.066566 4176.821801 7291.652425 4414.806471 2730.398300 3057.901636 16164.926679 15776.662375 14869.294168 16765.658854 11856.928932 16056.510043 9939.506395 4758.681093 11167.937394 5277.954344 3950.608043 4955.305499 3919.156723 16262.592494 16389.490047 16547.984816 15882.043156 15042.816119 14108.218981 13039.790698 12195.188117 8138.535005 5397.895806 7134.549226 4403.185071 3647.028171 16154.821584 15936.546191 15422.119219 14004.703481 13016.613113 14389.250989 10397.311722 8569.560547 9684.702843 8125.348155 9155.658873 3974.814243 8470.318812 16173.288710 16676.167808 16806.464825 14563.047507 14936.338408 14365.987474 11998.379810 11949.659427 11616.603943 3363.795866 5593.539054 10028.705676 4321.036083 16207.587712 16461.933222 17287.917053 15227.776420 12570.160880 11872.095132 10395.655133 7110.404359 6305.667927 8487.943761 3226.255304 7310.153545 236.583308 16169.055646 16164.059580 16742.396181 14642.502076 15473.086958 10866.242959 7097.129083 10512.937658 10675.560797 4871.467498 3329.676086 2411.903270 3323.228300 16056.792315 15912.135317 16142.813192 13039.410784 13836.800642 12754.190214 8943.698706 10383.514108 11332.097962 7886.908539 4749.012493 6147.128033 5128.828684 15861.892760 15484.365756 15319.066050 13359.677930 14966.112999 9583.953311 8548.936255 11236.712611 9906.693035 8365.163258 6536.687612 9289.441073 3268.610007 15587.353227 15480.689655 16251.473142 14404.621012 12210.870308 9641.634571 12730.087780 11369.864997 7322.016937 5760.174422 3238.114295 6242.823208 6811.161285 15330.385119 15525.842571 16638.256205 13849.647107 12891.655452 12431.139108 7656.583722 8419.112591 8300.833836 10650.070561 4898.713913 3405.414747 7186.423453 15279.564570 16008.197697 17708.771799 15315.280714 13905.825839 12703.230187 13944.699638 11251.560003 10788.996713 8702.770357 2136.684560 7050.641961 8244.797682 15183.492275 15576.812955 16217.311457 16246.946926 11907.915013 11478.187010 14009.473948 13163.519218 6251.970056 5177.107196 8052.703537 7305.739788 8288.970665 14985.354732 15015.075869 15219.429670 15758.923753 14583.709030 12326.273580 11747.249219 9220.996146 11269.802246 10470.641243 7086.049638 5460.846677 5278.251458 14727.206039 14575.483945 14751.053914 16245.924112 14930.293743 12712.105280 13166.165127 12401.740440 11103.701383 7916.248617 7577.498835 9295.124974 5109.812703 14380.512991 13941.680908 13762.331116 13359.335099 15241.190541 14297.761356 6794.664123 12527.441955 8473.614685 5666.186607 10065.022673 4289.451902 7504.287073 14157.864130 13502.228649 12904.085105 15239.439367 13457.708230 15790.855025 9449.668522 13853.725940 10981.832710 8164.224605 10188.234946 8094.755484 3232.426318 14094.190266 13784.764903 13084.317538 14314.802700 14050.167055 13899.530705 13700.434863 10473.288815 7358.421163 8669.271240 6577.372390 11568.629202 5657.376736 14046.634384 14025.069423 14091.617345 15993.811560 12923.451278 13432.916534 12017.090335 12485.133175 7763.921038 9554.332756 10145.897430 5533.642011 4963.125277 13993.017213 13800.426906 13443.493352 15800.317270 12945.126315 13060.674673 14494.508926 12535.540988 9310.293135 8077.073184 5157.966013 6400.343709 5817.655055 14073.199424 14208.320041 13971.945783 13743.991704 13053.667688 12942.467098 6402.194536 9738.419131 4204.290618 4800.725412 5606.540844 10503.827148 4230.701459 14201.275544 14104.234666 13802.908706 14129.441919 13900.602939 13644.196415 13511.912221 8598.998325 11686.781287 10795.435278 8174.372983 9030.928122 4782.903687 14171.527775 13728.291514 13309.529461 16479.108260 13437.332361 11705.439163 12456.813530 12358.462656 13362.659470 11060.368849 6787.416440 5925.678191 2459.621985 14019.486982 13950.616996 14100.487576 15229.951242 13845.618123 14431.462580 13770.052419 9494.950568 9440.351941 11513.401351 6911.841178 5022.953815 2912.985218 13804.355606 13832.271229 13736.233354 14129.477358 14130.706475 13923.775229 12931.255441 9471.284242 10621.967951 7095.567339 8221.654591 1306.665904 6357.797751 13550.866057 13778.981134 14046.031105 14289.103241 16314.906809 10429.973380 11162.483982 10274.458534 8311.229977 12235.592912 7188.198790 7361.167213 4235.955452 13273.059215 13457.996701 13861.460168 14952.106508 13318.869055 12649.313068 14643.136685 15782.396333 12379.858370 12643.187724 9165.454894 10270.937604 7403.293860 13066.298993 12840.544923 13032.242649 13174.350983 14595.265711 15619.253196 10130.043529 14127.726453 9896.212931 11471.614128 8662.807158 4363.552763 4937.909547 12997.076139 12675.155781 12207.006281 14776.598079 9976.209471 15361.826351 10237.497111 11998.328014 8697.528298 7210.016384 8613.297338 5673.572447 5853.676694 12894.999575 13198.908757 13128.468176 15015.531930 15106.712725 12972.626156 14495.998244 12576.200883 8731.978552 6790.466875 9891.955236 6849.742587 1837.419343 12583.612631 12884.484017 12976.701322 14393.621350 13101.138530 14315.529364 9903.801833 11470.014207 7761.458217 10471.008775 7086.163653 7285.060143 6883.581633 12237.307094 12494.861064 12709.246148 15786.841346 15904.750299 13672.757965 8983.010289 9417.149853 9378.879119 7840.609456 8716.427345 9097.270679 4955.511508 11926.866196 12182.776916 12874.526535 14687.935037 12284.390985 12000.406964 10438.000238 13424.698987 12702.421747 9326.138749 4893.511006 5821.400225 3998.391872 11585.784107 11942.460894 12869.826807 15044.557103 16341.593993 12256.471598 9729.509755 11150.406042 9695.306299 10899.944821 7874.510655 10747.205910 5662.622893 11277.168409 11316.086970 12657.660011 13395.792800 11262.711879 11601.605946 10500.527214 9431.882280 6191.869316 4654.096503 10115.359665 8014.883050 3608.691201 11340.470889 10908.549161 10949.564456 13886.789953 14438.857875 9075.883386 5227.633305 10268.139707 4742.382188 3391.702508 8071.521106 9484.998434 5340.120041 11772.060179 11889.251169 11747.565099 14196.354768 9566.717197 9150.017138 9818.737718 5881.039203 7248.843478 5414.901991 7931.005641 7427.297996 7270.866221 11851.100241 12035.684035 11553.182088 12888.932114 9402.109298 9988.879602 6779.897162 8846.893385 6817.572544 8705.973642 5465.513337 2420.212153 3933.637365 11373.282264 11535.980482 10858.271407 11639.951150 8901.155190 8376.599466 6358.752421 8080.925404 8636.707911 5422.434879 7385.281514 3842.512579 4312.442484 10735.775147 11065.271958 10960.327939 11830.342004 9211.172445 10382.210152 5811.662903 9280.415965 6478.820072 8275.900230 8085.716157 4678.095360 6002.759847 10099.109021 10450.465771 10388.121873 11222.244117 10040.425054 7862.084725 8936.530811 5771.620172 6847.976099 8023.092940 6849.541819 4053.774685 2534.903072 9414.832681 10145.087538 10990.954763 14739.887124 8421.798103 12083.459804 8447.103888 6579.934211 8264.389683 3011.378364 7371.401734 7299.724243 5695.620673 8706.355373 10418.646754 13632.760648 10128.992644 10775.146935 6995.515673 7913.294563 7812.626489 10081.584442 7832.441621 7417.833085 8194.752523 6504.633630 8155.137331 8497.167433 11010.462443 6169.892579 8976.079320 9789.458349 8773.290452 11977.767972 8145.827993 10325.007920 7618.458855 5682.788789 3845.660394 8150.318322 6898.433180 6785.948178 12724.101594 8754.001957 10527.858713 9635.012321 8009.268685 10784.409567 11154.476752 9823.761396 9670.526511 4929.531247 8705.900328 8587.024040 8749.187442 13531.415447 9189.643257 10866.668790 12501.031109 11635.035981 12819.728752 10553.994757 8375.322339 9220.669662 9472.482122 9172.965799 9484.754753 9256.983037 11088.831257 9846.449633 13228.358693 10274.629959 9855.344575 9468.436431 6742.285051 15168.166662 13586.959792 12029.919165 9265.537211 9548.358279 9443.890202 12969.918450 14163.725089 13379.692242 13403.924325 14551.672021 14515.622627 13539.616587 10317.021090 12301.081016 8168.370678
</DataArray>
<DataArray type="Float64" Name="Velocity" NumberOfComponents="3" format="ascii">