<VTKFile type="PolyData">
<PolyData>
<Piece NumberOfPoints="2177" NumberOfVerts="2177" NumberOfLines="0" NumberOfStrips="0" NumberOfPolys="0">
<PointData>
<DataArray type="Float64" Name="Pressure" format="ascii">
 21832.948071 21728.165275 21526.767100 21309.460721 21133.077145 20879.853690 20378.885432 19624.304001 18737.531821 17857.812665 17008.394369 16048.936158 14853.872840 13408.224936 11758.730912 10024.353879 8425.027678 7117.163132 6071.871823 5280.472005 4732.012914 4264.836545 3699.948900 2987.474843 2165.688240 1302.416540 493.990902 -234.654394 -907.358758 -1510.113859 -1992.141155 -2323.665875 -2509.521824 -2574.627287 -2549.710235 -2463.092532 -2337.459982 -2189.496582 -2030.783740 -1869.033192 -1709.216180 -1554.443108 -1406.590100 -1266.721770 -1135.367934 -1012.703052 -898.664984 -793.041206 -695.552427 -605.989328 -524.543127 -452.534668 -393.265554 -350.595746 -325.076417 -314.141026 21917.707580 21785.095021 21463.141607 21208.183986 21347.057639 21462.714555 20975.500034 19994.475024 18807.725695 17788.702531 17055.138116 16188.094259 15026.028743 13715.378273 12143.424776 10201.006090 8387.553407 7132.631681 6070.659774 5136.550034 4574.427243 4180.638005 3677.000709 2992.399837 2127.801963 1159.442499 371.724939 -251.581065 -873.460974 -1485.164692 -1979.142320 -2317.180284 -2506.072923 -2572.669810 -2548.565887 -2462.434825 -2337.108778 -2189.341338 -2030.753131 -1869.080652 -1709.311403 -1554.566439 -1406.728724 -1266.867104 -1135.513631 -1012.842685 -898.787129 -793.115113 -695.483112 -605.481420 -522.719451 -447.655918 -383.869878 -340.751929 -317.280721 -308.043764 22129.789154 21995.921838 21037.221207 20493.012037 21896.073176 23243.342052 22185.089800 20778.458512 18719.611492 17382.751787 17471.240158 16540.181338 14934.399157 14203.654169 13225.002430 10583.315934 7882.136764 7479.422800 6454.617450 4643.731983 3959.328149 3641.415065 3356.468494 2722.951395 1967.953158 649.351322 78.248569 -286.101999 -786.986090 -1453.830448 -1970.387918 -2315.513911 -2506.604838 -2573.623822 -2549.376822 -2462.985072 -2337.426271 -2189.486261 -2030.780648 -1869.032277 -1709.215890 -1554.442937 -1406.589759 -1266.720713 -1135.364484 -1012.691748 -898.627932 -792.919772 -695.154609 -604.684498 -520.303637 -437.900993 -361.691749 -321.676812 -303.918986 -297.866843 -316.828825 -298.468528 -290.830305 -274.933987 -268.368938 -264.593876 -234.023782 -232.444905 -230.968010 -200.807678 -200.383693 -199.867351 -172.204379 -172.115626 -171.916831 -147.322673 -147.329510 -147.234670 -125.649077 -125.681284 -125.622150 -106.807782 -106.844388 -106.799543 -90.480240 -90.515130 -90.477720 -76.381537 -76.413103 -76.380766 -64.252821 -64.280824 -64.252585 -53.858505 -53.883112 -53.858433 -44.984791 -45.006282 -44.984769 -37.438520 -37.457197 -37.438513 -31.046047 -31.062205 -31.046045 -25.652075 -25.665991 -25.652074 -21.118433 -21.130366 -21.118433 -17.322832 -17.333019 -17.322832 -14.157596 -14.166255 -14.157596 -11.528408 -11.535737 -11.528408 -9.353076 -9.359251 -9.353076 -7.560338 -7.565518 -7.560338 -6.088720 -6.093047 -6.088720 -4.885460 -4.889059 -4.885460 -3.905496 -3.908477 -3.905496 -3.110536 -3.112994 -3.110536 -2.468193 -2.470211 -2.468193 -1.951214 -1.952864 -1.951214 -1.536772 -1.538115 -1.536772 -1.205840 -1.206929 -1.205840 -0.942632 -0.943511 -0.942632 -0.734116 -0.734822 -0.734116 -0.569578 -0.570143 -0.569578 -0.440256 -0.440706 -0.440256 -0.339014 -0.339372 -0.339014 -0.260068 -0.260351 -0.260068 -0.198752 -0.198975 -0.198752 -0.151317 -0.151491 -0.151317 -0.114766 -0.114902 -0.114766 -0.086712 -0.086818 -0.086712 -0.065266 -0.065348 -0.065266 -0.048936 -0.048999 -0.048936 -0.036550 -0.036598 -0.036550 -0.027191 -0.027228 -0.027191 -0.020146 -0.020174 -0.020146 -0.014861 -0.014882 -0.014861 -0.010907 -0.010923 -0.010907 -0.007954 -0.007965 -0.007954 -0.005745 -0.005753 -0.005745 -0.004081 -0.004088 -0.004081 -0.002808 -0.002812 -0.002808 -0.001798 -0.001800 -0.001798 -0.000944 -0.000945 -0.000944 -0.000150 -0.000150 -0.000150 0.000681 0.000683 0.000681 0.001654 0.001658 0.001654 0.002893 0.002900 0.002893 0.004553 0.004563 0.004553 0.006833 0.006847 0.006833 0.009990 0.010010 0.009990 0.014362 0.014389 0.014362 0.020385 0.020420 0.020385 0.028616 0.028662 0.028616 0.039762 0.039823 0.039762 0.054704 0.054783 0.054704 0.074518 0.074618 0.074518 0.100492 0.100616 0.100492 0.134130 0.134281 0.134130 0.177132 0.177314 0.177132 0.231351 0.231564 0.231351 0.298689 0.298933 0.298689 0.380946 0.381215 0.380946 0.479571 0.479854 0.479571 0.595306 0.595584 0.595306 0.727688 0.727932 0.727688 0.874374 0.874540 0.874374 1.030256 1.030281 1.030256 1.186324 1.186124 1.186324 1.328243 1.327704 1.328243 1.434611 1.433586 1.434611 1.474870 1.473172 1.474870 1.406850 1.404245 1.406850 1.173944 1.170148 1.173944 0.701940 0.696612 0.701940 -0.104466 -0.111729 -0.104466 -1.365401 -1.375065 -1.365400 -3.229690 -3.242284 -3.229686 -5.878751 -5.894864 -5.878737 -9.530342 -9.550613 -9.530298 -14.441969 -14.467058 -14.441823 -20.913733 -20.944257 -20.913256 -29.290437 -29.326769 -29.288882 -39.962854 -40.004512 -39.957776 -53.368517 -53.412215 -53.351943 -69.993849 -70.027155 -69.939758 -90.384274 -90.364721 -90.207773 -115.185560 -114.969949 -114.609665 -145.291605 -144.388944 -143.414348 -182.540271 -179.051028 -176.390215 -229.518289 -216.394850 -210.067680 -257.257916 -235.183788 -225.146375 9673.801308 9343.374627 8224.726506 7760.571573 7846.531497 6848.523282 5184.847661 4173.909754 4187.499511 3887.486921 3032.898208 2232.800276 1718.031262 1322.799211 888.098956 477.620165 88.476808 -279.263857 -621.638136 -935.490467 -1220.374215 -1477.792346 -1709.714130 -1917.506096 -2101.540067 -2261.312777 -2395.816476 -2503.953699 -2584.878141 -2638.217827 -2664.183107 -2663.583642 -2637.783528 -2588.620183 -2518.306087 -2429.326146 -2324.338405 -2206.082481 -2077.297915 -1940.653440 -1798.687448 -1653.759609 -1508.013329 -1363.348610 -1221.404580 -1083.550453 -950.882088 -824.216361 -704.059624 -590.467943 -482.604162 -375.180154 -284.219157 -246.337408 -229.903640 -223.455296 9540.910173 9256.869405 8666.313454 8632.566813 8336.143104 7552.485875 6435.100030 5370.400640 4755.539376 4086.378331 3300.462040 2551.912036 1892.918085 1358.899309 900.321016 482.366068 90.531386 -278.218170 -620.961612 -934.963730 -1219.927140 -1477.394297 -1709.341001 -1917.136415 -2101.157916 -2260.909841 -2395.391896 -2503.512449 -2584.428890 -2637.770943 -2663.749117 -2663.172202 -2637.402819 -2588.276633 -2518.004310 -2429.069010 -2324.127178 -2205.917013 -2077.176848 -1940.574408 -1798.647295 -1653.754593 -1508.039372 -1363.401643 -1221.481290 -1083.650350 -951.013937 -824.419057 -704.471053 -591.563503 -485.965271 -388.492186 -307.164430 -260.739526 -238.155684 -229.347814 9427.509564 9174.348172 8681.203079 8316.898995 7986.027694 7504.830324 6771.758630 5857.813413 4999.306009 4199.613937 3398.257098 2626.062648 1947.460633 1384.882461 910.311617 486.383653 91.966301 -277.947788 -621.176046 -935.339332 -1220.327914 -1477.778990 -1709.710495 -1917.505168 -2101.539848 -2261.312732 -2395.816469 -2503.953698 -2584.878142 -2638.217828 -2664.183107 -2663.583642 -2637.783528 -2588.620183 -2518.306087 -2429.326146 -2324.338406 -2206.082482 -2077.297919 -1940.653453 -1798.687492 -1653.759752 -1508.013799 -1363.350148 -1221.409616 -1083.566945 -950.936091 -824.393159 -704.638137 -592.364084 -488.739535 -396.726985 -322.423498 -272.621281 -245.120135 -233.890613 22343.272066 22241.890748 20579.317768 20829.139721 22919.907907 24225.889901 22460.168412 21372.380060 19032.782569 17598.388806 18271.472161 16946.890643 14686.003696 14467.595593 14041.996485 10576.954365 7317.708031 7579.648227 6439.100191 3609.955412 3326.210898 2991.609206 2923.841951 2654.967858 1675.054273 -576.927869 -431.086078 -299.365561 22881.011959 22308.996223 20169.571782 23053.663320 18339.333470 24046.052749 27133.904774 22823.425442 22462.435118 21505.256338 22647.874592 19778.273465 23755.157377 25308.080556 25927.467514 17586.105464 22516.230671 23231.714769 23817.304090 22129.940799 25915.997487 22002.744746 23157.644791 17943.870313 22411.578978 20488.835961 6289.754870 6770.814179 23005.737180 21736.730745 19281.498937 21730.440352 21126.517736 21179.723611 21439.907091 18162.931294 22350.430480 13418.099897 20454.028114 24091.063665 21561.868710 20958.839460 22258.150597 23811.182794 24083.307331 10896.971178 18974.491779 20455.567154 28442.109287 22594.021844 22823.285106 19087.483430 17673.181902 10975.262774 16806.948861 10822.225189 22495.602660 21321.056967 19609.692830 18423.162126 15514.259351 20975.524477 19078.647591 14955.183373 22548.503659 18414.724201 20074.901729 22465.342274 23388.056747 15542.526259 22018.312901 7204.462224 13471.629830 6005.766878 19958.930571 26435.003584 16276.112148 21438.346312 22833.590879 16162.490037 17325.082579 19586.380128 17622.238125 7642.599874 22023.943634 21429.184137 21334.824785 21740.912697 16447.407743 21044.873379 21120.037695 22891.495683 23636.540789 20467.004596 20157.515910 8204.712646 14263.997125 13565.139288 15970.848511 18839.156574 18595.292511 19338.327157 19195.861177 21518.738917 14156.669953 20954.840741 12468.723278 6849.433374 6485.322952 6293.598392 14742.229350 4462.415057 22072.514629 22943.651567 25834.096813 24665.286867 22266.329416 16364.037029 23809.696567 19805.863395 22475.657926 14803.263302 9305.213631 19433.469289 12533.119000 14820.435136 13903.678258 14647.485835 9888.685622 4189.487039 6042.818680 2944.923501 17426.976356 8121.890455 23500.116662 10449.780305 14712.345978 10018.192182 5365.606101 6374.139180 22438.692811 23866.523522 27444.214813 24353.525712 18231.446729 12879.475156 20835.956384 13483.386979 19209.439328 17115.294638 20644.970407 21360.791451 16513.088260 11046.560626 13671.658781 13001.926519 15308.622188 7553.159303 17056.940347 18672.933534 19350.653028 8853.470365 3519.252646 7578.267645 5084.587820 3757.691418 3571.499639 2229.426264 22771.021187 23645.061935 25143.254995 18618.997978 24962.261717 25921.754129 20254.476589 9929.640573 21089.650818 9126.388852 10581.965834 11647.976652 19123.283277 17266.166392 19899.481661 16298.680632 7934.718417 17176.320359 11449.685481 10611.657050 8824.113600 19058.833683 5221.083064 18553.029117 18669.588486 5582.082580 5067.162886 1166.334255 22980.192585 22906.562976 22947.754028 22736.169967 19542.648544 24270.975914 19284.997345 22851.351236 27619.606882 23231.104516 22739.546427 19932.417057 19586.342129 12236.721075 7515.520013 23030.994986 16403.992741 17273.053996 4069.388303 7205.090531 10737.858365 11172.747349 6760.806535 7961.622340 14175.351016 2897.272797 11979.520321 2218.038413 23065.543649 22732.214478 21684.324879 25561.524211 23329.803773 26625.964592 21747.771045 19121.027866 15421.343988 13963.003339 15571.767761 7814.179074 17190.861970 18642.476192 7812.987499 11373.907188 8031.921679 14336.191300 6795.313367 18051.365496 7201.294157 5906.653373 8967.681074 14266.190734 6676.891255 3526.100134 2699.547671 11073.647258 23263.416183 23287.577540 22000.677961 24086.101419 23838.928481 24040.519760 17117.906878 24445.065287 7571.114662 24790.318216 12936.585412 18946.990012 9135.382040 7060.397734 16210.944137 11611.311779 9746.696447 14231.786188 12426.648064 9580.788149 12698.150489 7869.387605 10655.855712 11030.497570 6451.014936 11505.112099 10738.175259 5905.751109 23610.991865 23592.789287 23514.674321 22759.730713 20928.307614 23169.453147 18838.249686 22139.407910 16249.752394 16128.991409 9783.626473 15520.477557 16527.254470 17781.995280 10246.532126 11324.341935 16686.339903 5112.738792 4126.877177 8223.442412 14586.675330 15777.804003 6042.246385 13915.438097 9103.582936 9622.143019 2892.656895 3404.576582 23776.629527 24551.438654 25835.445940 24460.612258 21727.441826 18556.335605 18216.613926 20619.346794 12878.900480 15793.075077 15170.641004 17499.013007 14934.157575 3023.629761 13948.043791 3993.866731 12176.888032 9438.942650 7637.142830 15246.392090 10814.707540 8665.078348 12902.531477 10615.417898 10007.220093 4555.044902 7486.695545 10831.477212 23593.743332 23582.369115 23219.357827 23440.003204 19578.676149 20980.602263 23321.080249 21046.294998 16741.207307 20533.077130 12832.848784 10599.017327 4292.394955 4491.230130 3995.021307 6860.767128 12219.502333 7184.553367 5588.581599 10264.795064 4643.029608 6849.099626 3173.462019 14769.462176 6063.617206 6148.734486 11138.797768 2880.105625 23491.488381 23303.406220 23202.879167 23569.460380 22428.827849 22788.944866 22338.111920 21517.854920 19259.957879 14924.995378 11511.858819 10408.384359 7743.053570 3653.403330 5096.863293 2568.560098 4311.865306 7636.399003 4250.708199 6180.338308 4874.899306 4206.503179 3225.850167 5175.884020 7848.212562 2929.361556 3085.565303 4808.702672 23521.568289 23668.565822 24139.231919 21516.847728 23936.903465 19931.231706 20863.422020 20660.232810 14213.190514 13092.587227 12057.017328 6234.210901 2801.086123 23462.214656 22916.657853 21936.956855 22658.323998 20492.466748 22020.741312 20420.476176 17168.389158 19404.869158 7562.723294 3669.109811 4156.540073 3734.805504 23416.263247 22902.333339 21594.901552 22162.767859 19800.443246 13501.661886 8001.962624 17785.936379 10970.697989 6906.461350 7009.620599 9417.253212 7859.877956 23465.193622 23808.311623 23924.610115 21800.269385 20011.061785 19459.935218 16538.499908 16841.866885 6787.198143 7816.693203 6570.827897 5058.093147 7929.570743 23370.848090 23935.405914 24381.426361 22059.068876 19229.655675 16588.729420 13917.706944 11410.023632 4855.362883 8841.439164 12399.321539 3053.864584 2881.062483 23053.877373 23292.031821 22790.040935 19795.691773 19215.047796 19788.509935 11441.060475 15749.789659 7076.933222 9401.506763 11332.240966 3228.483251 4959.873578 22710.027944 23414.172127 23704.770145 20881.320865 18686.922263 18736.540707 12554.170011 9762.820543 8322.914264 12876.485217 12191.391111 5684.690480 3845.116746 22240.904159 23177.250865 23888.127933 20357.673375 18524.336438 7924.393406 8360.515591 6847.058442 4770.799661 12201.339261 8639.186952 5376.600186 3284.900601 21591.976616 22257.888963 22953.490585 18253.982012 16695.965796 9324.942493 11929.694774 11830.721572 10188.287434 9521.629080 4058.393406 4263.405815 1718.014691 20978.789366 20196.445725 19208.546311 19692.307848 16378.495019 17266.149828 19022.397290 9582.615349 10802.017150 6692.893155 7557.075618 7215.690295 14420.194784 20761.735837 19986.839146 18690.802071 20682.423434 15091.683253 16961.766394 11290.447867 10208.446083 9061.160596 13193.679855 7019.434987 7668.585128 7139.758894 20834.828430 20982.678100 20443.030574 18916.305008 19660.169633 15876.226650 15341.564464 13610.732632 7785.392636 8407.950949 10595.430196 2786.110135 5879.245881 20819.932507 21013.657074 21006.724660 19469.971825 16289.390913 20087.266735 13558.016998 16041.275541 2754.877346 11588.227203 11507.632044 4372.281009 2028.368643 20520.203428 20505.706791 19888.498426 18142.808742 14791.751454 16493.534517 17964.967366 14468.714383 6013.090951 14419.960457 7299.961908 5269.621325 4572.488803 20066.760636 20054.131242 19672.101042 19190.359214 18002.223988 16337.164263 19214.021025 18296.289000 12759.170795 15061.564231 5239.175515 6331.531306 4246.651229 19599.235162 19404.180366 19493.231701 17187.701225 17632.706054 18970.003588 20079.621503 18090.731035 12121.558080 13015.295801 6032.674964 2902.613965 3300.268108 19170.420346 18927.672400 18473.838719 13665.945240 18061.535178 19678.502791 11913.913069 15107.147185 6800.869109 7754.092379 3305.907777 3053.400986 3536.757294 18855.870218 18381.034983 17459.682561 20693.934797 19993.402492 15957.731414 13467.191237 13203.474493 10060.526298 14725.493208 4646.257137 3151.480417 4184.625946 18765.008703 18042.426436 16769.979286 17275.650067 19944.327110 17168.015916 11436.675559 13040.647226 11976.654685 6361.964483 10369.449011 9231.184137 3042.193433 18838.828871 18674.495445 17522.177662 17904.883101 19108.851646 15915.221351 14281.249163 7642.361034 10187.705046 10110.808121 11559.292390 4627.826725 2707.548033 18784.876794 18883.872722 17656.687485 20455.878453 16709.728559 17556.943509 14443.042356 10024.715138 15131.124451 7690.322150 4425.304770 2962.535161 2893.675522 18555.617018 18320.803377 17096.648409 19579.222005 17418.035553 15624.565047 9920.667123 9395.777920 10185.390632 7748.004151 6458.721101 4336.701922 3906.290632 18202.809795 18100.322363 17282.779051 19482.047299 16868.238109 14802.037177 14228.272747 8443.903591 10221.620599 5786.990788 4028.584881 2848.312461 5380.196649 17721.793439 18041.474864 18086.240334 17636.011708 17465.805206 11231.624952 12241.101364 9215.788110 5073.233376 6609.218210 4105.542917 3502.409098 2023.081513 17194.481839 17470.812507 17460.849410 17610.572378 17027.845049 13304.966589 10805.918040 12849.050521 6069.941383 7012.197901 7397.848751 5336.342893 2302.017538 16755.670396 16769.429264 16996.825524 17148.362417 17360.548721 7949.262878 10762.949805 10583.219095 11368.631185 8134.269170 5908.109786 5674.447396 3145.654290 16478.744372 16468.130389 17007.123315 16871.706908 19914.411005 14076.587839 3856.319295 14487.005231 7416.441280 10026.526187 3558.862975 4387.134589 331.599245 16467.789236 16364.115615 16891.779163 16437.562546 20208.705701 16462.834267 5809.401529 12794.110512 4616.592204 7105.978137 7776.416152 4292.097684 3747.523295 16656.427189 16637.126133 16759.098371 16218.693819 16867.771976 9937.785593 14036.612006 12444.060964 7753.169322 6451.345773 2235.128479 3903.712955 2456.502136 16714.731453 17271.836380 17517.949195 16234.426029 14422.327237 15089.719554 14421.407082 14005.342484 6228.967409 6519.532647 4733.867813 4725.335389 3665.784247 16672.667721 17032.067191 17103.916184 17889.023032 13650.190180 8264.824080 9165.521012 14226.967231 13497.204207 7920.584612 7922.826242 5144.914721 3366.974655 16783.428950 16172.928190 14578.913397 16049.686445 12811.563452 8453.614343 12056.841240 13155.759049 5503.136321 3433.889619 5038.125419 4710.879682 3196.522586 16892.435329 16229.034129 14258.087899 17305.371568 13791.408361 14657.867170 11788.466712 11380.888069 8234.400847 4460.359183 3645.652324 5977.730224 2823.746396 16677.420446 16567.599641 15359.343612 15606.895868 13076.118277 14601.724012 11756.597734 10260.616611 8860.311862 9090.492600 8375.950329 3399.204186 4411.366801 16203.961289 15711.800264 15214.103024 14062.431763 15598.129044 10484.163442 13259.056148 11459.783123 7830.621367 9284.348042 9035.490630 3611.655740 4705.881599 15869.391640 15198.455012 14591.208123 16147.367965 13153.173362 14227.182692 14147.105204 10484.569312 5105.471029 5546.071604 5439.244318 2876.970926 5671.392071 15884.361727 16827.891082 17583.401478 15611.242674 15165.200230 14164.298317 12052.501996 13734.981101 8325.966018 5455.971956 6999.449645 4043.446112 2081.858155 16089.685022 18053.857549 19317.900088 16099.351912 15256.568881 12786.004102 14323.058422 7496.670140 5826.728440 6561.765140 3677.413876 5311.141225 2926.128558 16414.765022 18292.708458 19341.331594 14810.892047 14348.213788 13155.848733 7313.511011 6995.241170 2441.688354 6781.609413 3262.606569 3556.950889 7730.685989 16769.282761 18336.605577 17649.217670 15355.731205 12810.690724 14363.938232 11138.384993 4810.598558 9620.913807 4333.725189 5357.566551 3764.297233 -73.669468 16915.527551 18277.002905 17300.767001 14946.530208 13340.087344 13302.282956 12262.146065 11598.303953 8304.520620 6159.168554 6394.550395 4978.319480 4979.663807 16636.020436 17198.947843 17153.378762 16542.813583 14825.246980 13132.312268 9982.093486 9321.418587 10852.502238 8019.448227 8866.719809 4891.745680 6281.562040 16128.786936 16544.705278 17284.390530 15332.349607 17670.293790 13833.673234 12398.688363 12224.405442 10198.800430 2597.559553 4979.861880 8740.243378 3548.623130 15677.198894 15534.131072 15748.708647 14692.159143 15396.841360 13436.528372 10414.104023 6749.910723 5793.111269 7508.214822 4308.280705 2953.313461 3965.330766 15566.999683 15055.226129 14623.677383 14679.755775 13558.195485 11306.997503 6753.866521 10954.730693 9822.239488 4657.656614 3027.973906 3020.527414 2971.370413 15725.380943 15700.293205 16191.679594 13283.180461 15685.056511 14065.523139 9507.051928 10437.715354 8275.725044 8126.453981 5055.616054 3548.087582 2577.713967 15846.526432 16026.866540 16444.443899 14450.933291 12199.427319 9816.542380 7674.094831 8285.471991 8775.443317 7347.270496 5124.398433 6004.966209 1034.243039 15871.616714 16163.055107 16123.811172 15109.200007 13349.982963 9559.437603 12106.300424 10326.589696 7435.655014 6013.252950 3602.959118 5644.662782 5152.290071 15692.203539 15251.879058 14490.379556 12879.062416 14912.545688 13390.951685 7229.753488 9186.404332 8947.408307 10866.299607 2818.747612 1732.743860 4541.894114 15413.567803 14181.244316 13100.746156 14187.974735 11692.649816 10646.998180 13034.169898 11282.741694 10854.740405 9014.759104 5417.030109 6830.448143 6759.036384 15322.898912 14869.173696 14490.558097 14794.268295 13574.795202 10808.538665 12163.641428 12111.682745 4884.735813 4780.125617 7741.784960 5220.216518 8755.267252 15383.368238 15451.768478 15722.206430 15124.677031 14784.489519 9762.112424 9867.044960 8642.622812 11790.269464 7618.548661 5213.826130 4109.450695 5961.297576 15474.341593 15451.388470 15530.230572 13941.184932 12057.717052 12393.302543 12176.230626 10433.213679 10021.139002 5687.187239 8313.855583 6378.973756 2451.014917 15509.526252 15695.166412 15960.837115 13169.364414 12909.090955 14400.295840 6032.671588 11499.714038 7932.104264 4389.394758 9083.556140 2933.153719 5235.371980 15407.820956 15593.785439 15440.340827 15879.004127 14344.688412 14532.857344 10794.685988 12526.170506 10991.598084 7129.323015 9025.248106 4462.340697 4526.518944 15186.448815 15538.106408 15306.259271 13060.181568 12156.802378 14732.413308 13341.521120 9233.384150 6047.581092 9179.660485 4310.397626 9998.189442 2769.308256 14801.413583 15042.320247 15066.510155 15928.994795 13026.555662 12731.005499 11190.438260 12573.998226 6586.401102 7415.448680 8066.771596 5878.934982 4861.095249 14479.033393 14599.674576 14759.768765 15671.218806 13602.815301 12844.345186 14198.129612 9148.179469 8959.728705 6015.762109 4862.325146 5688.414286 5113.092054 14363.898729 14374.125070 14759.251037 15636.653246 13537.506708 12883.662101 5982.392150 8254.343347 3726.320719 4970.307073 4576.016728 10315.844856 5403.050119 14207.008636 13480.665474 13064.999630 14027.195778 15306.151029 13199.472953 11611.960888 6416.282312 9767.156083 10071.022217 4850.642243 7385.109531 3971.187192 13994.778127 13935.348236 14071.980831 15624.361911 13795.069377 11890.580177 9496.896689 11251.809461 11140.618964 9069.789135 5416.840208 3836.335726 1504.240118 13707.300097 13842.096859 14248.591152 15321.827766 16059.623187 17171.520700 11989.620943 6406.396230 9426.463710 10787.421130 5577.240957 5333.632094 3987.462461 13385.021836 13327.106713 13711.001966 15193.597702 13481.554708 12884.650694 12257.766593 10124.248859 9985.511249 6506.392319 7008.078995 4001.063624 8258.413910 13172.517573 13280.044504 13809.778749 14133.058253 12968.598870 10221.141363 10360.938335 10233.451250 8078.624073 11308.633895 7275.874510 6652.387288 4490.793188 13091.459122 12853.218487 12336.305237 15328.634594 13127.201688 12028.166147 13759.511353 12306.848013 8858.249837 11081.282568 8718.571284 8557.924818 7230.887562 12959.924285 12942.102905 12404.470500 12944.287900 13471.225887 13955.089989 11025.320073 12353.564516 10456.387255 10819.661020 10286.328820 7150.995049 2160.806793 12554.823085 12434.741140 12316.223750 14908.174419 10305.667706 11968.664527 8733.794168 11111.495702 8163.444659 8766.146376 7080.728980 7606.621129 4794.731648 12112.149686 12331.441912 12970.211062 15120.195557 13274.397197 12045.128457 14228.722964 11008.895041 11037.645177 8875.847578 8926.409449 7790.781752 1624.591466 11955.537230 12866.796091 14634.478793 14792.329999 12560.701048 12500.906238 8841.368624 11935.275469 8228.647152 9921.029159 7122.277053 6317.906814 7166.195791 11921.097011 12687.878936 13719.734069 12500.456734 12994.507075 12961.194925 8570.366674 7959.982653 7652.649820 7981.912085 4672.590736 11218.478774 6805.599808 11821.512221 11819.965478 11884.107008 12503.878647 11349.592679 9643.113667 9900.681730 9638.348542 9069.398542 12255.886493 2828.336364 4824.026984 2110.034553 11566.495517 10503.280061 9220.276013 14026.554438 12911.437230 10523.354066 9357.770550 10003.377708 8016.475948 9363.820959 8017.945334 9100.390877 6314.630946 10923.093791 9127.210022 7094.816301 11396.904572 11442.119686 10894.417416 8539.367127 6529.337359 6543.326817 3630.444061 7239.946271 8261.999968 3222.530785 10191.053627 10084.108076 10783.804149 12319.592635 11011.282719 10206.080579 3029.337861 10270.571961 4886.117195 3130.117442 8310.982197 10465.459893 3438.287505 9896.109498 10904.971098 12897.261639 14323.234627 9095.816631 9136.281318 10541.187989 6554.065546 6826.694331 3532.468876 7177.325176 6895.333153 8815.187258 9970.523411 10225.204717 10460.390154 11056.228915 7725.292230 8730.840137 7394.639020 8625.953734 5362.476502 7174.460144 3717.225881 2577.324573 3387.855108 10017.449002 9584.004846 8762.342191 9109.937208 9134.722782 11024.686579 6788.298943 4445.375337 8353.481011 6257.306524 7055.498166 4650.412779 2422.530029 10038.670753 10190.825756 10691.346503 11622.753252 9470.587796 10951.629666 8020.441735 8706.186940 7146.663225 6928.245273 7840.061467 3762.451441 6048.937359 10195.725186 10663.434536 10500.267024 9297.803958 9503.251669 6768.370921 7271.111806 5662.717129 8565.625020 7100.099830 5517.550651 5924.252178 1611.460570 10370.373049 11856.790918 12686.730361 14167.942736 5798.691608 8001.339687 7659.712820 6790.816297 9543.045524 3493.391992 9997.244688 6773.688573 3162.075243 10023.066285 10920.503325 10949.075493 10625.163474 10713.225559 6625.830945 9156.126585 5374.314270 9735.839956 7317.278338 10332.439332 7544.508372 5491.295736 9422.311381 9291.623126 9247.730098 7237.114946 8502.113666 11946.417920 13247.154927 9316.697338 6690.470675 8232.727180 8381.341669 5626.078965 7070.898228 9337.071413 10181.903710 11662.676123 10670.834846 9322.654117 9150.645603 8146.990960 9426.832664 9013.762705 10654.393853 7928.082115 8036.125446 4014.150764 9642.799881 10244.082976 10947.547253 10294.126960 9029.655308 7352.709550 10403.783220 11461.450203 12204.960155 9122.574616 9103.367795 7555.625888 9501.855451 9782.939843 9726.430539 9142.922356 7302.609682 7360.071454 10549.751308 9315.165399 8213.170846 8880.364532 7663.862081 12322.546069 12238.191481 10955.053694 9673.801308 9343.374627 8224.726506 10590.325105 13410.322199 11397.478717 11563.232429 13610.557675 13985.502631 11933.402154 10289.891675 9672.942017 8932.346371
</DataArray>
<DataArray type="Float64" Name="Velocity" NumberOfComponents="3" format="ascii">