<VTKFile type="PolyData">
<PolyData>
<Piece NumberOfPoints="2177" NumberOfVerts="2177" NumberOfLines="0" NumberOfStrips="0" NumberOfPolys="0">
<PointData>
<DataArray type="Float64" Name="Pressure" format="ascii">
 16578.521625 16350.052453 15903.649812 15334.920466 14723.045676 13999.704558 13030.939554 11753.151876 10241.545810 8652.626487 7061.098184 5427.918132 3672.472009 1800.069020 128.305364 -1001.935721 -1610.005851 -1891.378938 -2000.551661 -2017.566186 -1980.514385 -1910.401042 -1822.479095 -1729.692112 -1642.969825 -1570.697017 -1518.227167 -1487.713924 -1478.514336 -1488.000058 -1511.783500 -1544.239216 -1579.447669 -1611.939558 -1637.125961 -1651.507158 -1652.730619 -1639.544877 -1611.684184 -1569.710918 -1514.836626 -1448.737990 -1373.380458 -1290.859308 -1203.265191 -1112.578765 -1020.597443 -928.898571 -838.853172 -751.738761 -669.098880 -593.573245 -529.889573 -483.304662 -455.189151 -443.115366 16515.108109 16232.737353 15697.030278 15157.722078 14714.398679 14106.251485 13118.799559 11788.465825 10245.896031 8649.937755 7018.530255 5313.524217 3459.058015 1224.946759 -709.943504 -1648.403431 -1962.634310 -2061.438441 -2077.509370 -2051.328261 -1995.124841 -1916.806379 -1825.536818 -1731.507763 -1644.422911 -1572.154925 -1519.870159 -1489.519464 -1479.675044 -1488.511029 -1511.986892 -1544.291729 -1579.399669 -1611.815210 -1636.944868 -1651.288339 -1652.492167 -1639.303014 -1611.452543 -1569.500153 -1514.654305 -1448.588701 -1373.266066 -1290.779228 -1203.216415 -1112.554848 -1020.584066 -928.858010 -838.673724 -751.080352 -666.960467 -587.957941 -519.052211 -471.727161 -445.794274 -435.628226 16451.916530 16074.310112 15496.849537 15059.352099 15156.441730 14695.682234 13139.448766 11670.796846 10496.108206 9300.044307 7510.208559 5215.816225 3673.256780 107.134461 -2563.771140 -2609.635334 -2423.653967 -2266.606064 -2167.560192 -2090.444726 -2012.037132 -1924.223501 -1829.041816 -1733.521564 -1645.973910 -1573.717902 -1521.918884 -1492.628367 -1481.254692 -1488.599557 -1511.910749 -1544.258062 -1579.446760 -1611.937050 -1637.124452 -1651.506450 -1652.730321 -1639.544758 -1611.684136 -1569.710891 -1514.836585 -1448.737872 -1373.380080 -1290.858077 -1203.261175 -1112.565650 -1020.554621 -928.758764 -838.396876 -750.247749 -664.271092 -576.996677 -493.780795 -449.381727 -429.653231 -423.103184 -443.108103 -422.562081 -414.174060 -393.217911 -385.808837 -381.651689 -342.888481 -341.104957 -339.455941 -300.781653 -300.298874 -299.721060 -263.598813 -263.496295 -263.273176 -230.490498 -230.497917 -230.390443 -200.993275 -201.030916 -200.962542 -174.771107 -174.814862 -174.761669 -151.530962 -151.573596 -151.528063 -131.000672 -131.040129 -130.999782 -112.923807 -112.959629 -112.923533 -97.059124 -97.091354 -97.059040 -83.180968 -83.209805 -83.180943 -71.079618 -71.105305 -71.079611 -60.561354 -60.584144 -60.561351 -51.448255 -51.468401 -51.448254 -43.577782 -43.595525 -43.577782 -36.802182 -36.817753 -36.802182 -30.987781 -31.001396 -30.987781 -26.014193 -26.026056 -26.014193 -21.773480 -21.783780 -21.773480 -18.169280 -18.178190 -18.169280 -15.115932 -15.123613 -15.115932 -12.537609 -12.544207 -12.537609 -10.367465 -10.373112 -10.367465 -8.546812 -8.551629 -8.546812 -7.024338 -7.028431 -7.024338 -5.755360 -5.758826 -5.755360 -4.701125 -4.704050 -4.701125 -3.828159 -3.830619 -3.828159 -3.107661 -3.109722 -3.107661 -2.514953 -2.516674 -2.514953 -2.028970 -2.030401 -2.028970 -1.631802 -1.632989 -1.631802 -1.308286 -1.309266 -1.308286 -1.045627 -1.046434 -1.045627 -0.833078 -0.833740 -0.833078 -0.661641 -0.662182 -0.661641 -0.523814 -0.524254 -0.523814 -0.413363 -0.413720 -0.413363 -0.325131 -0.325419 -0.325131 -0.254862 -0.255094 -0.254862 -0.199059 -0.199245 -0.199059 -0.154854 -0.155003 -0.154854 -0.119906 -0.120024 -0.119906 -0.092301 -0.092394 -0.092301 -0.070480 -0.070552 -0.070480 -0.053169 -0.053225 -0.053169 -0.039325 -0.039367 -0.039325 -0.028087 -0.028117 -0.028087 -0.018734 -0.018754 -0.018734 -0.010655 -0.010667 -0.010655 -0.003316 -0.003320 -0.003316 0.003762 0.003765 0.003762 0.011020 0.011029 0.011020 0.018880 0.018896 0.018880 0.027752 0.027775 0.027752 0.038037 0.038066 0.038037 0.050124 0.050159 0.050124 0.064377 0.064418 0.064377 0.081110 0.081154 0.081110 0.100543 0.100589 0.100543 0.122747 0.122791 0.122747 0.147553 0.147589 0.147553 0.174434 0.174454 0.174434 0.202354 0.202346 0.202354 0.229554 0.229503 0.229554 0.253295 0.253180 0.253295 0.269528 0.269321 0.269528 0.272478 0.272144 0.272478 0.254149 0.253642 0.254149 0.203713 0.202976 0.203713 0.106796 0.105759 0.106796 -0.055368 -0.056792 -0.055368 -0.306908 -0.308825 -0.306908 -0.678431 -0.680965 -0.678431 -1.208264 -1.211562 -1.208264 -1.943835 -1.948069 -1.943835 -2.943172 -2.948539 -2.943172 -4.276497 -4.283224 -4.276497 -6.027902 -6.036241 -6.027902 -8.297048 -8.307280 -8.297048 -11.200852 -11.213285 -11.200852 -14.875098 -14.890063 -14.875098 -19.475891 -19.493741 -19.475890 -25.180881 -25.201983 -25.180879 -32.190156 -32.214886 -32.190152 -40.726702 -40.755431 -40.726687 -51.036311 -51.069394 -51.036265 -63.386854 -63.424596 -63.386703 -78.066788 -78.109377 -78.066296 -95.382878 -95.430178 -95.381274 -115.657208 -115.708150 -115.651992 -139.224070 -139.274668 -139.207103 -166.428766 -166.465698 -166.373580 -197.635274 -197.614744 -197.455791 -233.266480 -233.042659 -232.682748 -273.952006 -273.026938 -272.055233 -321.256972 -317.684304 -315.063003 -377.021317 -363.650514 -357.480956 -408.119001 -386.000398 -376.092155 10783.695668 11152.989115 11356.800860 10543.214259 11141.272605 10641.288976 10680.331963 10305.011390 10924.199026 9134.409509 9392.976912 8452.928318 8168.849514 7280.852460 4295.686263 2121.339944 1071.741376 427.065250 -25.888417 -378.579466 -672.416204 -926.872175 -1151.251939 -1349.998316 -1525.191364 -1677.783507 -1808.238478 -1916.869948 -2004.019311 -2070.144094 -2115.856355 -2141.933500 -2149.314217 -2139.086468 -2112.471033 -2070.802273 -2015.506856 -1948.080878 -1870.065811 -1783.023792 -1688.512912 -1588.063247 -1483.154369 -1375.195001 -1265.505254 -1155.301260 -1045.680383 -937.600046 -831.826969 -728.774206 -628.027947 -524.758380 -435.080770 -397.160625 -380.744951 -374.508873 10461.185894 10602.585474 10553.229713 10573.345262 10744.069351 10242.228554 9741.821958 9159.357224 8900.558620 8303.435409 7934.731252 7314.016715 6415.057936 5054.485765 3379.923284 1978.035985 1043.065320 422.219206 -26.156716 -378.108970 -671.920575 -926.438525 -1150.863109 -1349.632358 -1524.835095 -1677.431050 -1807.888481 -1916.523575 -2003.678982 -2069.812753 -2115.537055 -2141.629173 -2149.027555 -2138.819848 -2112.226474 -2070.581402 -2015.310881 -1947.910574 -1869.921511 -1782.905393 -1688.419905 -1587.994760 -1483.109270 -1375.172141 -1265.504132 -1155.324074 -1045.738584 -937.735700 -832.183116 -729.837734 -631.411409 -538.226248 -458.811685 -412.859870 -390.431947 -381.801872 10224.827282 10288.456262 10270.364984 10145.152610 9921.334236 9516.265117 9038.926376 8622.907835 8264.317322 7860.834499 7382.196761 6668.543968 5647.164017 4358.653853 2999.708974 1850.045230 1008.864569 412.770572 -29.131691 -379.306809 -672.577595 -926.907835 -1151.259856 -1350.000095 -1525.191770 -1677.783601 -1808.238500 -1916.869953 -2004.019312 -2070.144094 -2115.856355 -2141.933500 -2149.314217 -2139.086468 -2112.471033 -2070.802273 -2015.506856 -1948.080879 -1870.065816 -1783.023806 -1688.512959 -1588.063399 -1483.154862 -1375.196611 -1265.510506 -1155.318398 -1045.736295 -937.782455 -832.421853 -730.717621 -634.298839 -546.672955 -474.594601 -425.667791 -398.477099 -387.402218 16436.966725 16116.451218 15621.957115 14909.293291 15162.243296 15337.253368 13106.155334 11577.999409 10853.829446 9248.340821 7577.455060 4909.579792 4059.111440 -984.514361 -4506.406285 -3119.476870 -2569.112710 -2325.145006 -2192.502396 -2101.326915 -2016.840954 -1926.366440 -1830.011131 -1733.973738 -1646.208657 -1573.902462 -1522.347048 -1493.899113 16374.645300 15507.802968 14614.257704 15265.736682 15179.406742 16031.718910 15491.452285 12511.848126 12720.047332 16563.942073 13713.850081 12718.006403 13784.221460 15494.538092 15968.612152 9276.506856 14036.540611 17486.348014 13701.603846 12007.294060 17045.922387 15446.705613 14892.243375 15241.885680 15185.648460 13090.995018 1850.494059 6167.738615 16137.075451 13941.777265 11879.538198 14829.101057 13827.705390 12649.039447 12294.963119 11314.094641 14429.408900 7134.454380 15245.488349 16548.338442 13196.532437 13282.896642 13658.963670 15488.337731 13568.742546 5783.635833 15651.782743 15029.792560 16337.264722 13754.900779 17489.088194 14817.202542 10019.846172 7501.277650 11624.829921 9618.401356 15816.068111 14384.128452 12157.797690 11922.398578 10414.093485 13277.690470 12167.546345 7286.295106 17422.017149 13588.296375 13300.979413 13703.844582 16733.572395 9262.024124 16065.129205 6555.859993 11231.710767 4988.457974 12808.874460 14028.323513 11835.519661 11659.111607 17167.597517 9805.855081 9133.675411 12727.992309 10629.997320 3917.144688 15420.146330 13396.395448 12394.035907 14594.715056 13238.152144 14387.202554 15757.343435 17565.722808 15872.766775 12948.270506 13331.291602 3230.667655 8709.023037 6731.507125 15998.846012 13291.763672 10957.174320 16549.904097 13583.454025 14558.306719 8536.722223 14920.641533 5911.164209 4581.796548 3620.684793 4767.868471 8771.329065 2772.637789 15179.350135 13389.945225 11728.727665 15754.300486 15818.979518 13020.997408 17723.752489 14470.858308 13160.159984 8252.673746 6105.179087 15126.971247 8375.569503 10237.519034 11585.911809 8535.681218 3945.979162 2455.161043 4521.103206 3396.793856 9882.503174 3235.945964 13463.192358 8836.378299 6430.259907 8597.406904 2766.803818 4493.224959 15521.547806 16009.744452 16147.786484 15049.033355 14522.290328 9515.168499 19446.597112 10078.308137 13329.505264 11299.738691 14899.467096 18491.849867 10624.683294 7134.336637 13590.410284 9576.864181 11957.789882 6691.287060 11673.574242 8836.688207 14438.592428 2336.526061 2039.117897 6928.316596 2908.786944 1232.216185 3679.811009 4693.654981 16132.124243 18360.019113 21142.525721 14600.656738 15187.700468 16855.624479 13409.927777 9889.484871 16334.923583 5744.665718 8462.386463 9477.795750 13878.004095 11838.381305 16878.009583 11728.379566 8766.794234 12729.436950 10369.803095 8084.580635 6919.833911 12766.959437 3151.136484 10279.466442 10866.280689 6258.783584 3246.296594 2842.707634 16580.502431 17853.475041 18695.703295 17023.454614 12940.402016 16122.063069 13540.073285 16665.466217 16761.443640 15227.311317 16162.561796 14795.474492 15028.373214 8949.049978 7098.432511 15924.700145 12345.114597 14760.638562 5339.179073 7582.821318 8958.124848 4146.500840 5340.841417 4529.916092 7625.235537 5895.193611 6238.264041 1595.528651 16980.532157 17589.541641 18156.624469 17667.822318 16990.946564 17781.486443 14470.572227 12636.101778 10807.105567 12522.507374 10416.101294 5038.110681 11408.370704 12977.105919 7850.686825 9568.666559 7584.473993 11633.484406 8521.605897 13609.727353 6290.203072 5984.358306 6944.147361 8634.634086 3647.345084 5390.630524 4447.003700 5062.165978 17264.638876 16777.921682 16902.420745 16153.530356 17182.321420 18783.562449 10019.019367 16783.206604 7231.676939 16618.288469 8197.999086 9806.792476 8200.360776 3728.646065 11841.824093 9206.091103 7464.364980 11722.746378 9468.165748 8262.582925 7495.587796 5249.142769 7095.530597 7172.654284 5727.640459 5240.808189 7564.650597 4788.295320 17462.431341 15965.732335 15033.934915 16491.663217 15257.510099 16320.332789 13737.417827 15363.963252 11885.870521 13765.483474 8223.909982 8712.631530 15294.377410 16488.754635 8585.926080 14053.871670 12484.665368 3646.209221 5679.336844 5665.958133 10145.605193 13014.092564 4477.608402 7980.626631 8607.099198 6772.993084 7273.198994 3097.991243 17843.650301 16769.105689 15730.342507 16082.094452 18970.389711 14838.715465 12719.112553 14388.121879 8290.144780 12316.732922 11477.084103 13772.939297 15481.009186 4819.814766 9494.766861 5543.972863 11776.727873 8394.789624 7377.751065 13882.223030 11453.841947 7903.939247 14039.427805 6913.056520 9740.270691 3227.854970 7042.389572 6294.799730 18465.648400 17931.625511 16732.552906 18090.232132 14960.154257 17280.775499 15640.945610 14363.601649 9966.671457 15412.080271 11880.486411 6983.801476 5259.934696 3193.881124 4283.545137 9594.755928 10352.216428 3493.537968 6833.735171 4577.659754 4220.399943 6102.118705 5474.640221 10586.841989 6054.063805 7182.684862 10953.365901 4724.016676 19082.997292 18875.116948 17289.599650 16357.550775 17085.353427 18374.446271 15395.091467 17058.386487 15069.907572 11775.828889 10544.344603 8094.965862 5806.029659 5258.134500 306.494606 4109.860470 5757.353358 5912.407750 -463.771271 6001.145193 6848.230196 3462.269000 4141.174885 4933.268621 6904.756903 5969.123132 4821.898843 4243.964377 19357.362422 18114.521163 15616.483421 16954.275018 16855.613618 17092.960227 16007.772045 14379.488470 12516.605233 11162.996010 11037.114524 5043.437036 5622.837910 19296.298043 16415.481961 12517.352906 15596.652263 16096.656193 14379.446873 16291.045268 16778.968387 15526.219295 10180.221512 4631.650260 2601.147815 5170.768930 19158.111711 16753.263870 13722.986291 17154.742959 15807.367774 14105.975149 5278.469152 16443.767212 11589.381696 7021.860606 6880.801047 9749.415969 7421.218599 19019.016730 18048.700451 16558.463226 15357.874519 15809.960056 15328.464162 11846.071589 13308.594562 6358.715270 7914.523408 5645.095543 3705.895984 4697.494449 18807.712073 18544.482989 18787.196918 18204.717149 16050.964038 14353.128958 13597.033695 7174.776558 7390.448136 7502.224670 11551.849419 5007.784533 2381.947599 18783.314577 18272.222402 17027.076705 17543.880743 18246.394072 15108.528677 11929.117395 16332.253054 4956.810658 4590.118099 8976.374148 1422.891101 1852.147984 19340.218092 19715.443925 18939.889633 18517.652829 15593.846887 16629.773056 11480.828621 9493.720217 7177.480104 13557.213999 10549.328730 5171.764437 3751.103165 19947.766539 19771.344876 17095.000450 18003.100187 14421.733610 6795.973002 6023.140277 8092.489661 6024.246961 12456.310656 8001.657409 6465.935712 9717.122543 20017.288139 19052.267363 15532.273577 20339.837957 15308.193478 10224.426943 11098.006418 13745.303469 10653.318380 9708.412415 4808.950497 -243.576495 3920.911735 19771.641953 19651.779515 18901.869016 18571.920259 16922.451808 15944.538678 15946.786260 8436.168793 8490.570176 9035.697047 7094.324537 5872.140235 14893.359633 19653.992743 19857.982499 20180.445789 20809.100319 13734.914925 13232.665082 8606.038547 8728.120173 9900.196144 13571.252879 6229.846095 6883.832603 10847.152438 19840.874667 19687.379012 19366.923803 20048.811134 19286.223865 16287.765771 14601.407644 14428.431987 6907.489444 8739.111237 12289.921534 5108.344089 4934.610272 20193.530462 19978.696815 18709.591253 18824.083747 16630.314648 15851.217873 13644.278202 16005.336192 4784.136144 10450.732448 12207.879848 722.168168 8459.804264 20240.649064 21377.928411 19730.363843 16180.129476 15768.883198 13415.605290 16702.354523 15667.020953 8496.701386 15716.498748 5571.301665 5078.775967 6475.455051 19587.619607 20420.216061 20308.677675 19928.627096 15834.762272 17035.339820 18942.829283 16642.050687 11047.254466 15316.824599 5769.037944 5694.065378 6578.951009 18851.445459 17510.594421 15467.121569 15864.167509 16122.630764 18618.968933 19464.149720 16302.939756 12236.226877 16005.173994 8218.053596 4366.940224 2705.759897 18964.594569 17018.148277 14678.784277 12426.845022 19161.568509 19334.040076 14100.321134 15903.500577 7272.148978 9351.229448 6169.762272 5973.310405 6419.371121 19418.996858 19032.174471 17716.767633 18825.354944 21777.151570 15272.545847 14574.791853 13260.551635 10744.043092 15344.851130 6513.060215 2209.453167 3850.832427 19589.713365 19837.812777 18879.499034 18637.287627 16680.448942 16397.217160 12794.262640 14392.229700 13919.495910 6947.271501 10307.046320 11996.369168 5081.930639 19641.136710 18543.682490 17726.023458 22647.791847 18176.564673 14827.764520 16186.066343 7669.503388 10988.501532 11599.706944 14763.858845 4654.252602 -907.979808 19915.985938 19045.529166 17568.741382 18729.083990 19786.560669 19290.388844 15279.693186 9323.543325 14338.329367 9204.830467 5056.564822 4710.348121 5294.876318 20075.478671 19463.959429 17681.009449 17317.500260 16241.680609 19500.683808 8426.394436 10737.418898 12076.967676 7740.870522 9607.552617 4665.080700 6061.824580 20110.134124 20027.261503 19640.368583 18114.345078 20408.435436 14828.979825 13981.896490 10991.119328 10668.742228 7118.737360 5864.707898 7575.535461 5099.663736 20246.978423 20222.918190 19734.583361 19318.486645 19842.546760 13599.905969 14762.580818 13151.299917 8422.107891 7102.812027 6276.028062 7208.180294 9310.696259 20452.287202 20351.512875 18239.298095 20389.531539 19976.928059 18615.082747 13420.856012 16707.347098 8292.557589 11690.970386 10473.996547 8854.128537 1716.789265 20363.962556 19760.244970 17143.779831 18520.195804 20624.335643 7279.841931 11115.556786 11409.461122 14730.288743 12010.333431 7439.862377 10523.768585 5061.203777 20114.418121 20583.107116 19931.359437 20609.404055 20353.865668 15062.078572 4326.657311 18178.167191 9086.594925 11363.625670 5882.369531 5430.727698 2838.300569 19959.976106 20883.110865 21026.160801 20838.790183 20142.714517 18643.722365 5800.900827 14889.951619 7890.008878 8351.845639 10737.507569 8308.228667 8240.582348 19967.193727 19819.275752 20487.976928 21018.381033 16863.633682 13891.576590 14816.270889 15938.309022 9548.577188 11479.282661 6442.386379 5582.512318 7126.401761 20139.930817 19339.725496 18978.027786 18974.626369 19328.050267 18412.716003 15964.474494 15039.551666 8440.741113 7747.718024 6382.745665 9002.776551 4311.813494 20322.336124 20162.028301 20096.452593 19320.665410 19446.592617 8579.409015 12073.530146 18655.875014 16640.576237 10672.185136 9124.007675 7601.599587 7640.899568 20448.691176 21472.297052 22462.665817 17036.859648 16302.810006 8644.605890 13808.057135 15477.744241 10526.954392 6895.932370 8284.054812 7866.664468 5143.887715 20517.776564 20538.828025 20896.288356 20246.238103 17085.058314 18231.861875 13763.285041 14145.273560 14823.933098 4545.687728 5791.693181 9827.409966 5884.420903 20739.521627 20331.241110 20488.281161 20439.186492 17767.564739 15168.420801 13461.381836 12205.869107 8636.245537 11490.479286 10299.154146 7280.918964 4229.653280 20835.908542 20765.696411 20498.975382 18575.768918 19970.065000 14353.467791 17074.975150 12734.708075 8829.434704 13071.184084 11684.529746 12442.575980 7682.649644 20621.028502 20275.428678 20027.348497 20199.507656 19098.028038 16677.013916 15912.962820 13378.756349 8640.662383 6522.841681 7409.183574 6959.218390 6447.331332 20248.681663 20226.633572 19936.633603 18506.258860 17241.401203 15008.159388 13895.894500 16574.473197 9352.841423 7267.913484 8695.094301 7853.327290 7231.485124 19831.092325 19818.644865 19491.831772 19318.161414 17318.694388 16367.720142 17627.542947 9752.933174 9428.739141 6804.837209 6456.722430 9556.779082 2774.762853 19453.440149 19629.110908 18394.599180 18412.958910 16901.424565 15172.471533 9460.152095 5353.829588 6836.866983 10330.398156 8986.741554 11421.381884 5006.692804 19240.133167 19372.138184 18340.993890 17632.795571 14395.594591 16340.900165 11535.918127 7162.574753 14394.207816 7927.759067 7442.074778 4697.459057 9059.378257 19071.036062 18463.751106 16576.365197 18424.507244 21813.989010 14645.515249 16091.039299 12973.806873 10943.733849 7235.147575 8725.226811 8194.718327 4765.899767 18868.766047 18174.594625 16488.777429 17687.323645 16755.896149 17769.293431 12762.607936 12463.244237 14389.622085 10118.556002 11554.350819 7517.508208 6226.881832 18670.819984 19294.590274 19955.144285 17412.784468 18163.456331 17022.448526 17077.770370 13736.750827 13367.791159 7195.316061 7574.261592 7619.820017 7226.332171 18353.604547 19186.494757 21283.803426 18772.008676 17706.290093 14489.842681 13637.899172 9753.653793 9437.066520 11427.177233 5456.456039 4992.630359 4235.258287 18016.548815 18259.643974 18680.697480 19043.837473 19635.308768 14931.417571 9174.115669 15053.124407 10725.080924 7495.464092 7058.619424 2977.591290 5083.116864 17715.225077 18321.986477 19705.329335 15739.832712 19562.236695 19843.496514 13040.437950 12777.940677 12669.224858 8990.513450 6141.795263 7273.376956 4102.627825 17207.765652 18277.031569 20272.809658 16275.179428 15649.182749 13281.078846 10262.149864 12718.129436 11168.134523 11213.432158 7591.012730 8741.689590 7322.640376 16670.659454 18034.570070 19062.530722 19304.066446 14971.017480 12788.975267 13312.914458 13053.664804 10159.922840 9102.718297 6356.182951 8578.456938 4199.619570 16206.049791 18706.133197 21677.580047 15649.860250 16753.085729 15691.150642 9237.828298 10699.698865 9593.229989 12443.693949 7580.847949 3550.074696 5580.398867 15462.951059 17452.518942 20267.271536 20122.338113 17865.824840 15789.884666 15497.121960 13307.463238 12030.739570 11243.427033 7288.911862 8929.508658 8583.663995 14885.975720 14083.156992 13802.790121 18149.111792 14179.456177 15847.807239 14584.373387 12115.136249 7380.208608 7511.338121 9916.222127 6391.180615 7467.252642 15152.332442 14969.174778 15416.713093 18730.334593 15412.812897 13920.740916 12479.498135 12225.047112 12603.313626 10453.170239 10031.218523 5903.122877 4812.114712 15799.993722 16963.319042 18198.098208 17041.358876 18041.911479 15651.380005 14530.006698 13219.101021 13564.776517 8950.729014 8799.547108 7423.221072 4454.747318 16108.876265 17582.056854 18343.668436 16589.508048 15730.001141 16139.902393 8247.042786 12225.647926 10448.213408 5917.091241 11785.940540 6224.396893 7199.274548 15833.451893 16292.792614 15254.621130 16535.052979 13477.027163 18159.577167 11563.302625 15652.050958 12959.125398 11768.288780 11243.251032 4392.654495 3707.358360 15482.935267 15911.880683 16233.190640 15395.476342 17206.440383 17243.898571 14788.895162 11288.978056 7872.201156 10256.348055 8069.176991 11765.071015 3895.896968 15263.839567 15725.606742 16525.385241 15477.863699 15536.141585 14711.391369 13057.599277 12466.675733 9624.536848 8323.687621 10658.155552 5595.564550 4166.532995 15261.836302 14896.348216 14646.684951 16668.376782 14483.944436 14998.321434 13629.696980 11709.548636 8286.904155 8604.332769 6903.595693 7376.943862 8314.430742 15413.504104 15618.841530 15554.020152 16494.282252 15131.879037 17171.383559 8901.329716 10340.352093 6091.911114 6124.428065 6045.458106 9103.017450 4939.416655 15311.302510 16068.587622 16260.875309 13120.111671 15907.686957 14797.293678 13636.532655 9844.553784 11861.779450 9619.072546 6962.209218 6588.680590 5783.011850 14901.858161 15311.077995 15279.155299 16750.472910 14383.847294 12915.773005 11129.124203 11720.203305 12556.742490 9366.396332 6939.031245 6160.862026 2810.092258 14385.637370 14360.371513 14124.002192 12731.231013 15663.039843 14802.469538 14500.206179 11037.873993 10419.350626 10916.198314 5325.585933 6602.257887 4326.058156 13954.227208 13604.896165 13417.859555 14616.792892 14606.946663 14322.618528 14521.932541 10810.695287 8862.718295 7825.897014 8650.097164 3091.925236 4865.500962 13782.629488 13827.395087 13844.679074 14714.847005 14485.118211 11011.676688 11830.096131 9678.084472 6446.452605 13010.552337 8054.093149 6966.853367 6178.571522 13671.818605 14007.712603 14699.321788 15555.301315 14713.437148 12691.124263 13428.323123 12465.320731 11163.374726 12682.073769 10814.343561 7546.249166 6931.828799 13369.943938 13117.449104 13486.156764 13825.082786 13800.133091 14410.708314 12109.678771 12064.706358 10304.351682 11528.158619 10194.404195 6400.884273 4253.661062 13112.985992 13426.898258 14026.461253 15040.716086 12913.947708 13100.031302 9761.090543 12717.941331 5808.106344 7630.155373 8154.754131 6769.012508 5924.487188 13096.175625 14664.121829 16552.442844 15557.881137 15304.414660 13678.335459 14086.778284 14209.927884 6542.290731 6329.164253 8036.694422 4300.961608 4784.239531 13132.926843 14983.603085 16154.397695 14920.968512 11638.634878 12281.909821 11821.587684 11947.529381 5142.361120 10920.353808 5439.539250 6559.888246 7101.254740 12963.897524 14059.695109 14192.023132 13876.460231 13966.917788 14354.971319 7242.140001 9015.598733 9832.654798 10738.381339 7743.096547 10229.497579 4186.834553 12651.815681 12333.584640 11318.547165 13168.432950 12197.264862 9190.665673 9684.831859 10895.768271 14088.055609 12169.372220 5032.156859 4668.142142 5524.672743 12501.738890 12896.014233 13441.228907 15050.239648 13482.379198 13109.519469 11777.104545 10629.745920 11964.173436 11364.945190 8284.242901 10694.480923 7286.819395 12510.860158 12645.132746 12914.334251 13957.813666 11322.731983 11803.074719 10886.021845 9493.243228 7717.779704 5812.360412 7730.520483 7107.379242 4297.437315 12823.666726 12983.203651 12761.190323 13656.651962 13849.242537 12055.630908 6664.242018 10886.639207 6047.125093 6089.897542 8823.955261 7546.182626 5567.330889 13165.600344 13840.047022 14126.890881 15049.676638 9828.738314 11202.355282 14647.637356 8824.645680 7822.609636 8327.510341 10422.719808 6500.514920 7245.752723 13158.976282 13667.192552 13977.355369 10865.947346 12579.193785 12146.003076 10156.376095 11964.239041 8880.974535 9988.294115 6079.410004 6098.722335 4000.250419 12902.558066 12774.083707 12931.754145 12610.050949 10225.705313 10325.094903 11070.816282 7207.153788 11008.438874 7618.182743 6620.938108 5135.242241 4511.662896 12657.007239 12481.084116 12856.227614 13185.155514 10965.195479 9786.871956 9648.005612 11280.076541 9779.206669 11928.180667 9873.434575 6125.255043 8724.027359 12540.104128 11966.792282 12008.357684 9364.021231 11160.458711 9315.221834 10552.004750 7548.016640 9678.649798 10877.328795 9582.531460 4678.747362 6131.681039 12606.578218 11897.307575 10888.620459 13741.307019 13360.842716 11522.277125 9570.892621 8957.503048 12075.249903 5790.925545 10661.689688 7699.746018 4222.613424 12747.173067 12419.599906 10444.080057 12333.562177 12881.747554 10627.660499 12423.360577 11336.571026 13024.240622 13420.390031 10912.073953 9514.278011 9333.487348 12829.531870 12638.908311 10350.198701 12559.681908 10012.760724 11575.095964 11834.054415 11916.917752 10742.515369 10557.695850 13434.448993 9006.559791 4537.631758 12728.019791 13072.208506 12018.283832 12393.553944 14401.112395 10882.072628 11139.919113 11724.572411 12840.220840 12660.960844 11668.063113 11195.541572 4577.772531 12229.206298 12694.239506 12077.836837 13391.108473 11825.810014 10745.902818 11917.125624 14207.910729 12524.198298 10538.179949 12637.241253 10249.764201 12458.020017 11348.972711 12123.152327 12644.296964 12415.068695 10238.552833 12454.179252 13369.770666 11015.706920 12139.885511 13161.799872 13351.728225 13322.686914 13357.016423 10783.695668 11152.989115 11356.800860 13340.880656 14102.258142 13840.511110 13979.631778 13552.870039 14096.014362 11600.621550 13300.771126 11807.176052 11818.753415
</DataArray>
<DataArray type="Float64" Name="Velocity" NumberOfComponents="3" format="ascii">