<VTKFile type="PolyData">
<PolyData>
<Piece NumberOfPoints="2177" NumberOfVerts="2177" NumberOfLines="0" NumberOfStrips="0" NumberOfPolys="0">
<PointData>
<DataArray type="Float64" Name="Pressure" format="ascii">
 17756.255275 17326.500413 16549.742347 15673.160623 14811.016234 13779.131080 12388.431192 10744.373574 9063.072755 7325.007798 5559.997475 3818.174475 1962.475351 262.126207 -615.143903 -590.187030 -189.030642 -144.509223 -727.927917 -1324.751074 -1533.798310 -1670.336265 -2224.121300 -3124.976763 -3757.535588 -3909.792751 -3756.636815 -3468.786567 -3123.720309 -2759.287106 -2404.308968 -2073.367138 -1770.153921 -1494.457655 -1245.550834 -1023.137379 -827.215280 -657.641510 -513.766472 -394.264329 -297.155585 -219.962158 -159.924096 -114.219174 -80.147150 -55.260671 -37.440390 -24.921724 -16.285387 -10.425165 -6.506550 -3.928789 -2.291712 -1.331451 -0.835495 -0.638610 17665.213813 16962.406516 15697.589379 14499.197448 13573.640311 12447.597978 10825.015863 9173.046591 7972.532197 6501.298990 4865.597768 3572.823345 1679.888501 -636.780519 -1352.660215 -769.787138 257.420386 597.493143 -879.204770 -1805.474360 -1594.649648 -1370.783583 -2627.864420 -4127.320196 -4242.518718 -4164.049865 -3892.265893 -3557.238329 -3178.683310 -2782.668530 -2412.880557 -2076.474942 -1771.452601 -1495.170176 -1246.077939 -1023.607438 -827.664084 -658.072237 -514.171492 -394.634138 -297.482687 -220.242505 -160.157197 -114.407484 -80.295168 -55.374000 -37.524900 -24.982784 -16.326845 -10.447035 -6.498568 -3.867772 -2.166089 -1.225265 -0.775692 -0.605678 17584.156905 16388.956296 13797.543515 11840.407653 11020.643329 9397.841773 7085.156176 5163.531578 6432.355584 4723.333800 2756.926393 3792.188752 1763.251565 -2990.826075 -2805.653036 -1011.048159 1405.768101 2472.329233 -1568.819121 -3096.868379 -1707.667341 -560.067044 -2708.760448 -5917.034259 -5301.862045 -4498.207946 -4063.488422 -3698.550248 -3288.064251 -2814.253173 -2421.179605 -2078.618801 -1771.786683 -1494.964886 -1245.707986 -1023.185892 -827.230197 -657.646080 -513.767867 -394.264754 -297.155714 -219.962196 -159.924106 -114.219169 -80.147122 -55.260564 -37.440003 -24.920328 -16.280368 -10.407142 -6.442929 -3.684427 -1.809477 -0.999743 -0.672833 -0.550878 -1.008854 -0.679665 -0.535623 -0.570807 -0.464846 -0.397119 -0.296492 -0.272616 -0.249749 -0.161266 -0.155233 -0.148141 -0.088135 -0.086733 -0.084487 -0.047911 -0.047661 -0.046899 -0.025763 -0.025770 -0.025484 -0.013668 -0.013712 -0.013591 -0.007145 -0.007180 -0.007124 -0.003678 -0.003700 -0.003673 -0.001864 -0.001876 -0.001863 -0.000930 -0.000936 -0.000930 -0.000457 -0.000460 -0.000456 -0.000221 -0.000222 -0.000221 -0.000105 -0.000106 -0.000105 -0.000049 -0.000050 -0.000049 -0.000023 -0.000023 -0.000023 -0.000010 -0.000010 -0.000010 -0.000005 -0.000005 -0.000005 -0.000002 -0.000002 -0.000002 -0.000001 -0.000001 -0.000001 -0.000000 -0.000000 -0.000000 -0.000000 -0.000000 -0.000000 -0.000000 -0.000000 -0.000000 -0.000000 -0.000000 -0.000000 -0.000000 -0.000000 -0.000000 -0.000000 -0.000000 -0.000000 -0.000000 -0.000000 -0.000000 -0.000000 -0.000000 -0.000000 -0.000000 -0.000000 -0.000000 -0.000000 -0.000000 -0.000000 -0.000000 -0.000000 -0.000000 -0.000000 -0.000000 -0.000000 -0.000000 -0.000000 -0.000000 -0.000000 -0.000000 -0.000000 -0.000000 -0.000000 -0.000000 -0.000000 -0.000000 -0.000000 -0.000000 -0.000000 -0.000000 -0.000000 -0.000000 -0.000000 -0.000000 -0.000000 -0.000000 -0.000000 -0.000000 -0.000000 -0.000000 -0.000000 -0.000000 -0.000000 -0.000000 -0.000000 -0.000000 -0.000000 -0.000000 -0.000000 -0.000000 -0.000000 -0.000000 -0.000000 -0.000000 -0.000000 -0.000000 -0.000000 -0.000000 -0.000000 -0.000000 -0.000000 -0.000000 -0.000000 -0.000000 -0.000000 -0.000000 -0.000000 -0.000000 -0.000000 -0.000000 -0.000000 -0.000000 -0.000000 -0.000000 -0.000000 -0.000000 -0.000000 -0.000000 -0.000000 -0.000000 -0.000000 -0.000000 -0.000000 -0.000000 -0.000000 -0.000000 -0.000000 -0.000000 -0.000000 -0.000000 -0.000000 -0.000000 -0.000000 -0.000000 -0.000000 -0.000000 -0.000000 -0.000000 -0.000000 -0.000000 -0.000000 -0.000000 -0.000000 -0.000000 -0.000000 -0.000000 -0.000000 -0.000000 -0.000000 -0.000000 -0.000000 -0.000000 -0.000000 -0.000000 -0.000000 -0.000000 -0.000000 -0.000000 -0.000000 -0.000000 -0.000000 -0.000000 -0.000000 -0.000000 -0.000000 -0.000000 -0.000000 -0.000000 -0.000000 -0.000000 -0.000000 -0.000000 -0.000000 -0.000000 -0.000000 -0.000000 -0.000000 -0.000000 -0.000000 -0.000000 -0.000000 -0.000000 -0.000000 -0.000000 -0.000000 -0.000000 -0.000000 -0.000000 -0.000000 -0.000000 -0.000000 -0.000000 -0.000000 -0.000000 -0.000000 -0.000000 -0.000000 -0.000000 -0.000000 -0.000000 -0.000000 -0.000000 -0.000000 -0.000000 -0.000000 -0.000000 -0.000000 -0.000000 -0.000000 -0.000000 -0.000000 -0.000000 -0.000000 -0.000000 -0.000000 -0.000000 -0.000000 -0.000000 -0.000000 -0.000000 -0.000000 -0.000000 -0.000000 -0.000000 -0.000000 -0.000000 -0.000000 -0.000000 -0.000000 -0.000000 -0.000000 -0.000000 -0.000001 -0.000001 -0.000001 -0.000001 -0.000001 -0.000001 -0.000003 -0.000003 -0.000003 -0.000007 -0.000007 -0.000007 -0.000017 -0.000016 -0.000015 -0.000038 -0.000034 -0.000030 -0.000089 -0.000071 -0.000057 -0.000218 -0.000135 -0.000096 -0.000337 -0.000180 -0.000118 7705.323965 10314.794039 14143.819329 5362.265996 8053.120762 8355.977751 6328.096967 2023.231342 2240.307664 2960.514316 4014.198742 1318.929878 -310.053316 -1229.473004 -878.115019 -768.009119 -801.903570 -865.890162 -894.098615 -869.293118 -800.525345 -705.536569 -600.846440 -498.052245 -403.792350 -321.092997 -250.773466 -192.447902 -145.121067 -107.513764 -78.242187 -55.926512 -39.263628 -27.076493 -18.343667 -12.211065 -7.988887 -5.137808 -3.248756 -2.020147 -1.235497 -0.743266 -0.439873 -0.256101 -0.146690 -0.082659 -0.045819 -0.024980 -0.013385 -0.007029 -0.003571 -0.001614 -0.000573 -0.000255 -0.000147 -0.000107 7334.936243 8729.397053 11156.906889 6173.741667 7795.711212 8238.928031 5440.793021 2657.275826 3419.597706 2909.181586 3284.496514 951.988967 -204.492259 -629.119517 -689.892399 -715.434965 -789.696597 -863.179655 -893.210185 -868.793079 -800.254251 -705.467977 -600.925670 -498.216739 -403.993793 -321.301273 -250.972083 -192.628544 -145.279898 -107.649465 -78.355036 -56.017899 -39.335721 -27.131917 -18.385219 -12.241465 -8.010611 -5.152984 -3.259128 -2.027088 -1.240048 -0.746192 -0.441717 -0.257242 -0.147383 -0.083072 -0.046061 -0.025119 -0.013465 -0.007077 -0.003614 -0.001729 -0.000730 -0.000320 -0.000166 -0.000113 7283.624722 7488.893146 7644.190469 6255.007433 5956.148494 5827.294296 5194.458660 4753.206646 5468.073199 4640.812320 3186.592246 1426.675559 280.403800 -298.455603 -536.338262 -666.781467 -778.631914 -862.321005 -894.295170 -869.781505 -800.805851 -705.657536 -600.890981 -498.066814 -403.796647 -321.094140 -250.773736 -192.447955 -145.121074 -107.513763 -78.242186 -55.926511 -39.263628 -27.076493 -18.343667 -12.211065 -7.988887 -5.137808 -3.248756 -2.020147 -1.235497 -0.743266 -0.439873 -0.256101 -0.146690 -0.082659 -0.045820 -0.024980 -0.013387 -0.007038 -0.003607 -0.001775 -0.000822 -0.000372 -0.000183 -0.000118 17661.649167 16120.831070 11842.306935 9348.831808 8863.552454 7560.679867 4998.017171 1603.642945 5416.390921 3230.538301 -555.494930 3459.425683 2142.060923 -4488.085853 -3648.582232 -1098.320941 1887.354621 3114.015091 -2018.934350 -3732.050109 -1759.747704 361.487082 -662.616224 -4902.519031 -5399.222311 -4597.828504 -4114.311919 -3760.756037 18107.545396 16285.161727 11272.704990 11069.526723 8858.728413 10847.511888 10825.796156 8763.455879 8924.036513 11884.987084 7500.927854 7715.834865 8252.671067 10018.665365 10214.171739 11391.231119 6973.175531 11342.431646 8698.534296 10893.757113 7603.256210 6607.959246 3608.451875 4796.279290 5787.612601 3120.473823 381.922012 -7789.976455 18530.470783 16693.069367 12806.882433 12601.279011 8545.248406 9330.240358 11236.370494 9719.834496 10751.868491 7570.404481 8507.736638 11624.758318 9175.336942 10268.261649 7395.365193 11672.703860 9967.743156 6162.443104 6374.916224 6060.663187 3455.980446 4770.140507 3765.975493 2465.704073 2059.944740 2178.679080 1781.384639 -245.177676 18740.354929 16326.849306 11778.390144 14780.922437 12492.050462 13068.279407 8170.556138 10580.089467 8710.379930 5410.746420 7149.505637 11158.215333 5844.229662 4135.483221 5953.270966 5240.267908 6130.123292 3658.390476 3473.332576 6106.337334 4725.536164 1660.997508 5627.587546 3991.057551 1828.717738 1563.936196 1762.523811 812.810103 19129.523368 16779.031810 12532.480858 10807.003883 13847.591321 10616.455196 10152.312473 10919.288403 13319.064930 12977.051143 11015.447132 10607.006335 9666.103798 7980.658128 9216.028824 7310.406452 6400.521438 6327.573698 6697.301377 5450.316850 2568.803652 4906.408669 1340.429830 2406.971206 -1129.925067 1014.911554 1093.248084 1250.089379 19577.218181 17584.892615 15483.170536 14058.700794 13669.168626 11266.322314 14108.980101 13131.301544 10520.032795 10463.217762 9184.996999 4984.784961 11658.045871 10182.002610 12475.252960 5579.750621 9701.445241 6588.000205 5251.904693 9708.595523 7846.228009 2531.773930 5458.634269 3182.986250 2280.469434 -1079.038181 1123.106639 1242.290357 19917.986091 16776.515864 11752.872395 15201.159007 13006.526615 12511.524246 12255.858859 12180.589868 11368.010930 10430.913090 11678.772018 7963.622754 9656.208613 9786.491798 9400.179876 6862.005241 9211.509447 7482.377875 7086.536527 7677.702506 2243.796068 1842.015262 -1065.105981 -108.108867 3947.956042 2463.439993 -198.232796 1576.209140 20587.169344 17669.765093 13625.881495 13549.664846 16867.973091 14484.252568 13784.441056 11866.062415 12642.960736 9687.596694 10494.852016 8639.469794 10267.894122 12180.495759 12451.759338 10384.548340 8765.290771 7967.143371 7846.269841 7307.887705 4798.518165 5580.142221 198.223435 6176.937168 -421.600187 551.151979 -1729.970991 553.375020 21036.653513 19075.078280 16952.969728 15090.027732 16325.185465 14179.904889 12148.624580 17080.244636 15083.348252 12773.065946 14218.638514 14668.705107 9791.622319 11206.535594 11304.589925 9782.311657 7698.067952 9135.908952 7889.037095 6643.454459 10327.466662 3723.747453 1840.218143 6054.598500 1605.637423 2694.166564 3596.858740 1669.964254 20790.061180 18743.354554 15840.430972 14108.615508 15933.673469 18264.010640 16256.788957 15418.126873 16944.139096 13047.481944 12452.477570 12159.297247 13330.072375 12538.975958 9490.094705 7894.533321 6373.377649 13707.706005 8663.745879 9828.435522 7676.033639 3885.319579 4025.311438 3076.614296 4281.632348 2394.046835 3011.170896 2818.262400 20303.865590 16780.595255 10051.187203 18824.843831 18370.196846 18962.670446 17112.124535 15383.799884 12379.188415 16000.247173 14113.924498 15904.285541 10922.930204 10006.866945 13171.620310 11887.061472 8063.094710 11655.679206 5292.616127 8023.182238 8980.056960 2785.398571 3864.370034 7220.565237 4950.344373 2138.893792 4220.783508 1247.173391 19976.413941 17246.735162 13709.256203 19278.976283 20653.695203 24204.402519 18332.155238 21430.352715 16544.063471 15185.356765 11611.372883 18643.837422 14874.742293 16551.414324 11677.832496 14260.268560 12590.885297 7527.638459 6296.634282 4225.662726 8749.433362 10285.603047 5163.611756 5812.665011 6624.885810 4211.547559 2445.779305 526.816414 19508.622695 17119.597595 14767.148747 21041.468546 23981.874381 22435.468828 18238.704858 17177.609554 14669.116255 15544.191681 13704.323041 18006.835787 17633.951511 4382.514714 6459.347672 2221.418806 7534.712261 4282.366475 7172.433166 13623.198349 12494.997820 12079.847142 12566.429186 7314.597874 10718.886720 7393.670680 5369.927902 5083.500728 19416.477551 15414.408746 9361.149951 23219.471249 22529.471948 22088.698827 21033.402825 21022.080921 14475.307120 19703.759293 13269.171173 6200.794748 2677.336250 3652.792436 4584.416829 7344.244733 8883.276012 -578.694493 5561.426271 2984.324460 6111.213347 4456.181583 1840.644932 10652.651864 6229.874027 1230.323457 7661.853572 3420.897900 19821.324946 18247.327523 16885.045833 25048.170370 22059.163881 21327.604466 22585.619325 17985.631813 17180.223376 16232.986091 12769.195976 8529.481748 2369.322660 2449.060307 1948.934280 5126.772184 274.391697 8802.952165 1078.185077 -1463.274870 2280.446287 -137.615101 2385.660515 2600.096554 5633.737647 -1422.427184 1447.470722 2115.044129 19784.249932 16648.966352 13055.134063 27305.284079 25073.213054 21605.445818 20674.402373 17230.294252 16801.325074 9502.268716 7740.020087 -314.364423 4987.609069 20071.632902 17466.122037 14000.967460 26530.646959 25885.646428 22872.303463 21077.036763 20806.711000 19243.606220 13729.256131 5422.578294 4167.758290 7609.512728 20465.808578 17867.775251 13948.476433 25693.671199 23181.841797 21169.318961 17104.980026 16126.573226 12314.208130 6875.628272 3214.359266 1714.557540 7025.896258 20553.443694 18832.957083 16948.195913 24731.645976 25077.454154 24273.121563 22010.667740 19147.998977 13656.646286 12146.642839 -3683.901253 605.323029 9637.013657 20239.965031 18128.999387 13572.189421 26674.204547 22106.397181 19325.135815 27566.217763 13258.080126 11121.939752 7145.413714 5430.075045 4459.886748 2312.510001 20071.918679 19141.884360 15350.710123 28893.415111 28670.418816 22465.189391 20966.511768 12774.720520 12189.897207 2635.354823 2312.990198 3648.143081 582.287413 20010.281100 18069.527506 14152.996325 29087.002182 26429.467284 25778.177399 18521.138756 16403.430485 10179.258040 8123.915125 9554.628196 4730.460147 3953.336459 20442.812255 17539.033758 13845.753136 27719.106485 22517.578198 20246.537876 19651.864860 15012.741952 9970.697076 10375.333107 4961.448756 6755.634373 2968.014218 21225.487452 20751.669521 19877.185340 26065.938086 26924.497366 19863.115374 22689.098092 17767.472946 14086.413348 1757.336973 6764.849457 1626.036870 2350.895742 21819.212533 21324.415259 19379.514253 29502.946206 25352.416873 21088.005680 24675.636742 21398.302836 16246.322839 9130.051672 7676.553850 8067.678796 8145.918825 22306.622670 23253.941466 23491.707046 26295.711377 25097.228717 25590.516031 21201.902703 12931.821322 15471.692291 14102.824547 12251.100061 9880.066324 -7277.265691 22513.694196 22998.047166 21837.926231 28031.331449 24816.698273 23818.615809 19413.714488 17152.660774 16822.934679 11936.968450 9726.979116 -1699.207143 5126.249146 22808.875602 22693.998239 21686.783089 30516.114576 24572.009664 24903.028809 20509.822465 20704.827990 13536.390502 10912.037893 7629.808225 7291.808167 -723.978105 23295.715578 22225.647829 20843.109406 27360.787613 25561.608714 27368.475468 24152.382971 19324.727494 15465.021036 15251.258440 9426.087701 10959.349397 7088.338182 23654.934412 23342.158546 23519.687779 27569.079707 25998.510260 26922.070082 22477.924491 21965.325949 15301.979493 16132.478206 11424.205148 8999.881883 4013.418700 23862.430419 24249.244903 24800.985449 26692.468192 28433.943487 24771.357777 23100.785684 22081.115586 20457.632267 11526.709887 8580.243583 10651.815714 771.532079 24093.008690 24676.000601 26368.667973 27679.229510 31484.639191 27416.102026 24043.847125 20957.650672 15186.746916 13460.352299 10688.563464 5508.764617 10052.461098 24255.013492 24037.259379 25381.197555 29060.605548 27479.874641 29113.264258 21910.189945 18567.028920 20528.685484 16201.558144 9655.066375 6601.951121 -4193.802446 24433.979246 24724.359257 24662.354373 27135.036606 25236.637460 25590.846795 26669.898176 21296.199707 14228.451084 13340.786960 8571.742157 11700.624269 9853.527079 24468.157845 26327.106659 27828.769331 32030.718153 27504.843527 24484.550429 25321.595315 21431.082009 16812.100771 14725.403149 11299.964706 13542.169742 12366.757559 24348.569086 25892.116042 28148.742318 32081.549566 29110.863095 28852.825057 24063.102591 17526.278347 17747.639513 12581.260324 12744.098117 11491.729584 10235.181510 24406.805001 26499.758843 29767.418631 27966.666360 28449.095869 25242.200239 23536.259225 21695.335650 15715.672482 14380.456924 12522.570841 7825.441616 2144.524808 24343.648359 26419.567829 30109.536055 25781.266220 28852.023145 29130.738348 22914.643861 22252.893135 16229.608227 14459.206596 12687.599071 12471.766316 10992.623099 24251.389434 25781.042571 30658.132252 23789.079413 25340.057925 27994.310159 22332.011322 22762.346276 15882.094772 16770.235921 12094.414833 15323.381245 7032.313765 24458.014980 25581.838970 30122.473231 29639.903022 27668.579915 30251.841052 27722.941028 19951.237613 14558.710136 15956.932335 11438.253073 15213.704734 13424.653391 25336.704991 23902.109312 24120.163877 30879.750529 28742.109341 25113.892330 26057.929560 20941.078094 20818.898214 12544.100509 18214.824242 6974.354097 2326.717811 26991.151497 28757.635733 30513.497308 31631.929581 30225.413506 23959.739850 28035.627340 18429.461445 14049.350595 11991.614226 16043.587062 15500.156842 -14583.578320 27968.169516 31201.014254 32976.611136 30133.699730 28950.636791 24552.089338 27595.869547 19909.358131 14782.693730 14651.511865 7916.968313 8012.832827 -11024.081841 27386.744867 30165.142641 33786.121603 26674.208562 28699.391450 23547.595157 25002.381056 21520.812753 17067.541565 16480.926417 17759.592667 7352.914982 19677.483679 25872.090340 24267.934710 23742.507760 27495.881732 29158.873601 25499.392067 23532.407908 19411.128068 17606.366328 17375.728499 10715.804931 14037.719150 8076.221047 25246.417218 25225.991920 23051.261812 28234.991813 29281.121010 26053.321342 24025.978095 19096.352287 16626.053448 16016.717268 8055.277331 9716.880656 16348.436829 25239.149740 29400.860751 30714.690040 28570.424951 28274.237934 26071.081033 23698.071613 19238.918070 17272.923667 13528.638182 16262.185104 11284.133377 24148.723288 25056.509433 26876.709371 27981.843212 28805.591490 27817.598921 25870.400081 23087.156840 19916.375443 17806.079663 15147.042352 16636.517424 10416.958738 10757.948291 25014.576786 28049.196736 31039.310052 27636.707962 28189.391849 24859.929070 23311.805954 20717.569790 17437.828565 15101.332834 13787.640384 10663.258456 6973.442808 24531.460904 28023.304128 32191.235904 26764.517933 29118.131952 23940.517374 23002.217659 21143.168196 17262.478674 13760.244405 13388.907116 8813.773621 9047.129021 23886.144016 25804.541578 28623.613033 25976.433342 29738.484553 23919.524475 21861.064223 21655.508651 17178.828847 12993.992890 13627.602652 12983.352528 3987.905876 23705.804197 25280.668159 27026.422491 25540.639286 28885.240932 24491.599625 20579.863197 22228.311081 16947.334109 12737.335394 13155.464257 12575.082274 2395.544189 23710.155168 25483.818287 27546.651528 26465.210920 27630.556511 25146.633181 19962.645403 21768.870270 17264.494220 11807.918447 11838.745903 11654.665945 3485.501667 23368.653770 25881.796800 29495.674894 26873.721920 26262.604371 25294.793905 20412.073538 19922.967458 18456.158325 9969.995226 11302.068658 6856.326479 9180.084527 22632.262733 25112.529751 28842.914413 26311.508385 24722.123837 24680.588253 21319.984625 17352.738333 19681.026692 7812.965623 12004.592908 11630.846671 8316.017722 21810.445006 23866.700866 27505.678787 26157.448972 24170.821430 23509.878616 21895.710184 15405.149396 19975.684219 6933.198585 13132.737353 14107.342085 8723.205999 21144.421076 22453.263334 25733.828781 26667.921351 24296.442251 22477.652970 21887.148880 14950.764938 18941.077872 8224.700513 13015.412250 11890.081092 7952.025395 20731.220934 21623.518267 23890.337730 26258.866571 23935.518474 21983.413817 21396.312193 15568.799363 16863.326611 11236.662590 10327.104819 9574.221303 12024.612589 20521.088540 21124.153139 23435.779515 25219.115470 23540.202517 21762.156849 20751.160617 16370.973838 14637.146579 14644.559749 6127.109696 12970.220371 18113.495781 20432.140457 20912.719640 23058.678427 25060.354849 23502.829311 21491.196123 20257.057506 16825.459654 13130.130013 16794.437937 2166.318994 18076.862484 20433.973515 20435.627610 20791.839985 22628.048245 25196.429439 23394.784630 21147.876314 19907.985075 16881.718891 12558.229819 17049.997873 401.277901 20696.723301 19714.163638 20477.848310 20918.424749 23180.450167 24688.841015 23021.610440 20811.951369 19517.113574 16710.405368 12515.827315 15960.774625 1362.267199 19056.460029 19748.307366 20475.465801 20954.843623 23083.430872 23702.997469 22424.985223 20471.918355 18977.605699 16458.838506 12497.146233 14391.724035 3430.839423 14384.118712 19448.801708 20431.074479 20780.430251 22204.617664 22704.495387 21749.523371 20081.867229 18322.164494 16162.396081 12303.417254 12924.570748 5147.623184 9604.800279 18780.550012 20394.007189 20619.486739 21404.203841 21968.333252 21159.235775 19641.949925 17656.671616 15784.324565 12013.650033 11747.116543 6152.763902 6185.423976 18135.683734 20371.415320 20569.329345 21074.536252 21540.532161 20670.683632 19184.377541 17081.741398 15318.292990 11786.525477 10814.320104 6698.240724 4171.869666 17911.170096 20337.737623 20570.295930 20962.379835 21174.395802 20243.900807 18725.916269 16629.242101 14827.783153 11709.338118 10049.348124 7137.863711 3236.010720 18468.729788 20274.393646 20522.477807 20847.199418 20795.340660 19861.692829 18284.013002 16275.804197 14393.411378 11746.733139 9450.332749 7792.780211 2973.049887 19600.896223 20179.084495 20384.667504 20602.089396 20344.270678 19479.987135 17864.216558 15970.101043 14048.278791 11789.707686 9036.952168 8598.796097 2931.071763 20431.622198 20060.176810 20147.811465 20175.756882 19840.525686 19085.195189 17464.256727 15673.754915 13763.075312 11747.100512 8829.284497 9127.648920 2797.339393 19901.547895 19930.986212 19844.179181 19639.326666 19343.017985 18692.435698 17072.966115 15380.627927 13497.589997 11576.436955 8743.961345 9043.075263 2953.173842 17386.992285 19804.688526 19508.827145 19057.095116 18887.287426 18291.109160 16672.618459 15063.285446 13186.612994 11302.766164 8679.862445 8439.730666 3403.813781 13354.115639 19693.729568 19197.747677 18524.047622 18543.618578 17916.395151 16288.270547 14762.407829 12838.182906 10931.104266 8514.430252 7671.496712 3787.564017 9405.875060 19608.413646 18929.910782 18044.162488 18221.454314 17531.346859 15872.474185 14412.671524 12425.393185 10539.687436 8230.074791 6909.228865 3852.087271 6578.292470 19561.906103 18751.135519 17691.049474 17997.264557 17228.478017 15532.370487 14111.782552 12001.681262 10103.806183 7889.273085 6314.857224 3719.900450 4811.110212 19566.184746 18679.957514 17410.397361 17743.000754 16807.168933 15102.993896 13743.432516 11583.626856 9712.313006 7465.397802 5780.910668 3488.827816 3754.821193 19650.723391 18699.736860 17134.230901 17351.607569 16776.579926 14841.038785 13464.581083 11175.630581 9358.182061 7164.187398 5398.169614 3197.288491 3098.888122 19849.863036 19097.165076 17207.233618 17131.192277 16302.957803 14520.286795 13191.420380 10906.620053 9034.539314 6789.298628 5151.444267 3060.932446 2600.718250 20165.576443 19321.780708 16355.947216 16281.033375 17393.436986 14395.361341 12959.961768 10649.950908 8939.879861 6605.463401 4856.844610 2890.928009 2370.346080 20413.264038 20166.356644 17624.662280 17129.205468 16551.763712 14530.274987 13008.349477 10548.895869 8789.881918 6513.168019 4961.177489 2766.056031 2091.801501 20095.955380 18806.974988 15710.462157 16757.920570 17039.614545 13838.349525 13070.970637 10466.868389 8971.211208 6333.547455 4793.265206 2972.174870 1997.154960 19528.625259 16690.178869 12784.616526 15417.053232 15599.520269 13903.103114 13219.328678 10388.131447 9138.800492 6586.975506 4930.559063 3013.677864 1859.596469 19298.883774 17160.221916 15165.102680 16924.296760 15025.575116 13716.642249 13514.824130 10438.672912 8979.744048 6620.267483 5041.525334 2851.597885 2247.592716 19440.091152 18020.228287 15888.407316 15362.789151 13001.915735 14028.845763 12493.560139 10811.595295 9742.736286 6267.759546 5402.985377 3213.543131 1742.262357 20018.563852 19366.170229 17278.063802 15987.727511 15186.421683 14300.591887 13294.291810 9621.134474 9726.733194 6919.201688 4663.059245 3539.418519 2145.146042 20545.500237 20818.893088 19154.867979 17720.610158 15247.516137 14596.826376 13656.664662 10370.080375 9882.642625 7154.414185 5264.951412 3011.643587 2169.852707 20287.852115 19933.897288 17758.000016 16671.018722 16748.122163 13611.722650 13647.145709 11560.777098 8945.281553 7569.925868 5568.870969 3059.055751 1918.061880 19602.096777 18637.419510 16583.659255 16049.457067 15377.193789 14379.174532 14218.727183 11211.640686 10317.490623 7292.077317 4949.611124 3682.765109 1951.279793 19266.625820 19810.448369 19567.120521 15688.050332 15707.830930 17130.861858 14132.004069 12685.683865 9326.666385 8147.565032 5710.044899 2745.573893 1510.324915 19257.557879 21189.782531 21985.779126 18475.050449 17837.046157 15544.348347 15291.248092 11693.637017 10099.262387 7792.332215 5048.338753 4091.877516 1463.816247 19321.379858 20539.993453 20494.664367 18304.653519 18133.309452 16017.752302 13554.563441 12090.454002 10221.220107 6765.523674 5712.519900 3475.486696 1105.473444 19358.862294 19962.843028 19210.019086 18591.470161 18035.844538 14985.496199 13942.404634 11044.611558 9502.690753 7192.725894 4856.088926 4406.892717 2195.611069 19135.720751 19824.289462 19541.940792 19025.093006 17309.240838 14271.831461 12042.191684 10810.587738 7966.840858 6803.885436 4864.015948 1878.342248 2407.443428 18357.454476 18910.712010 18183.781288 17809.446187 15349.447960 12942.206576 13792.611017 8663.336998 7966.432007 6177.199234 4408.120929 3708.532326 3426.812409 16900.045540 17015.295311 15537.339029 15802.340938 12958.833188 9301.179640 12309.269397 6230.263489 6583.171510 3192.625066 4368.001845 465.976839 2923.808539 14933.742392 15153.493979 14070.274544 15136.841717 11138.768242 6945.837826 6392.792778 5388.056603 7128.060938 2700.508429 4805.089462 3229.124066 161.331345 13085.878542 13382.211723 12938.994958 12367.151037 7153.198834 12352.908583 10187.258282 6567.807632 9414.463707 3949.446899 6726.805523 5117.160495 3117.136076 11821.884316 11197.258978 8208.702644 10279.869722 11102.335091 7111.731636 11442.251791 10880.204566 12383.909083 8190.087925 6135.134845 1788.705306 6595.855982 10635.546152 11623.276966 12082.009410 10472.754727 9849.916806 12143.897918 11215.580045 16735.905548 12037.300705 10177.625200 6159.489055 8359.270433 4074.517764 8728.364351 11100.184515 14301.839942 9820.535157 13337.480015 10841.204661 16586.565456 9056.315409 12746.811825 11123.249188 9217.421193 5397.063960 10562.873167 7705.323965 10314.794039 14143.819329 10498.560800 14887.536849 12368.967729 12002.674359 10754.162293 11672.441872 10682.442238 10959.402846 10089.543682 9860.078995
</DataArray>
<DataArray type="Float64" Name="Velocity" NumberOfComponents="3" format="ascii">