<VTKFile type="PolyData">
<PolyData>
<Piece NumberOfPoints="2177" NumberOfVerts="2177" NumberOfLines="0" NumberOfStrips="0" NumberOfPolys="0">
<PointData>
<DataArray type="Float64" Name="Pressure" format="ascii">
 12141.436876 11733.936884 10974.102504 9947.718310 8761.230505 7496.984309 6185.908958 4893.420033 3714.130060 2756.045172 1843.169380 678.990033 -360.632593 -703.289763 -412.367831 54.036957 145.949615 -413.837371 -1142.912317 -1510.328891 -1656.951312 -2043.477668 -2877.611803 -3717.505152 -4146.568746 -4201.345981 -4044.450515 -3776.980591 -3444.477176 -3078.741974 -2711.582420 -2362.841739 -2040.860293 -1748.258260 -1485.179600 -1250.714553 -1043.503701 -861.995672 -704.542280 -569.418712 -454.819223 -358.856844 -279.579465 -215.003547 -163.160172 -122.145586 -90.168536 -65.588689 -46.943575 -32.965981 -22.601807 -15.044229 -9.768180 -6.418234 -4.578125 -3.818598 11938.973936 11648.590698 11077.069075 10124.540253 8878.846432 7609.373967 6318.934410 4996.638033 3614.215496 2722.133687 2116.357776 394.390182 -1246.445454 -1355.068480 -573.636004 373.661664 855.415162 -312.069478 -1611.470555 -1683.418890 -1425.133290 -2048.312757 -3787.152736 -4387.673824 -4414.361209 -4340.075824 -4122.915379 -3838.258534 -3487.926350 -3098.101585 -2718.880525 -2365.587703 -2042.093622 -1748.992123 -1485.736753 -1251.195871 -1043.940700 -862.398140 -704.912892 -569.757645 -455.125830 -359.130449 -279.819830 -215.211123 -163.336176 -122.291885 -90.287268 -65.681283 -47.007944 -32.988147 -22.532029 -14.785524 -9.263263 -5.967634 -4.298366 -3.645589 11768.610239 11753.530757 11983.705038 11636.732185 9974.704427 8570.064787 6884.891696 5692.996218 3239.677045 2455.630410 3762.113851 -127.879423 -3647.848717 -2455.379314 -795.414300 1073.736823 2603.220348 -284.758976 -2920.442234 -2068.562649 -964.843961 -1550.534515 -5046.766594 -5783.786381 -4851.676026 -4517.794563 -4222.961675 -3942.808841 -3580.178552 -3125.324976 -2726.031746 -2367.378635 -2042.279328 -1748.701682 -1485.318051 -1250.757763 -1043.517180 -861.999873 -704.543588 -569.419118 -454.819348 -358.856879 -279.579465 -215.003508 -163.160024 -122.145070 -90.166748 -65.582517 -46.922312 -32.892697 -22.352701 -14.130844 -7.924384 -5.046170 -3.822548 -3.359849 -5.014713 -3.788483 -3.240560 -3.203084 -2.793241 -2.530279 -1.924178 -1.828176 -1.735267 -1.196250 -1.171293 -1.140976 -0.745263 -0.739539 -0.729223 -0.461605 -0.460842 -0.456952 -0.283159 -0.283505 -0.281811 -0.171736 -0.172194 -0.171347 -0.102906 -0.103262 -0.102794 -0.060901 -0.061141 -0.060869 -0.035592 -0.035744 -0.035583 -0.020540 -0.020633 -0.020537 -0.011705 -0.011761 -0.011704 -0.006586 -0.006619 -0.006586 -0.003659 -0.003678 -0.003659 -0.002008 -0.002019 -0.002008 -0.001088 -0.001094 -0.001088 -0.000582 -0.000585 -0.000582 -0.000307 -0.000309 -0.000307 -0.000160 -0.000161 -0.000160 -0.000083 -0.000083 -0.000083 -0.000042 -0.000042 -0.000042 -0.000021 -0.000021 -0.000021 -0.000010 -0.000011 -0.000010 -0.000005 -0.000005 -0.000005 -0.000002 -0.000003 -0.000002 -0.000001 -0.000001 -0.000001 -0.000001 -0.000001 -0.000001 -0.000000 -0.000000 -0.000000 -0.000000 -0.000000 -0.000000 -0.000000 -0.000000 -0.000000 -0.000000 -0.000000 -0.000000 -0.000000 -0.000000 -0.000000 -0.000000 -0.000000 -0.000000 -0.000000 -0.000000 -0.000000 -0.000000 -0.000000 -0.000000 -0.000000 -0.000000 -0.000000 -0.000000 -0.000000 -0.000000 -0.000000 -0.000000 -0.000000 -0.000000 -0.000000 -0.000000 -0.000000 -0.000000 -0.000000 -0.000000 -0.000000 -0.000000 -0.000000 -0.000000 -0.000000 -0.000000 -0.000000 -0.000000 -0.000000 -0.000000 -0.000000 -0.000000 -0.000000 -0.000000 -0.000000 -0.000000 -0.000000 -0.000000 -0.000000 -0.000000 -0.000000 -0.000000 -0.000000 -0.000000 -0.000000 -0.000000 -0.000000 -0.000000 -0.000000 -0.000000 -0.000000 -0.000000 -0.000000 -0.000000 -0.000000 -0.000000 -0.000000 -0.000000 -0.000000 -0.000000 -0.000000 -0.000000 -0.000000 -0.000000 -0.000000 -0.000000 -0.000000 -0.000000 -0.000000 -0.000000 -0.000000 -0.000000 -0.000000 -0.000000 -0.000000 -0.000000 -0.000000 -0.000000 -0.000000 -0.000000 -0.000000 -0.000000 -0.000000 -0.000000 -0.000000 -0.000000 -0.000000 -0.000000 -0.000000 -0.000000 -0.000000 -0.000000 -0.000000 -0.000000 -0.000000 -0.000000 -0.000000 -0.000000 -0.000000 -0.000000 -0.000000 -0.000000 -0.000000 -0.000000 -0.000000 -0.000000 -0.000000 -0.000000 -0.000000 -0.000000 -0.000000 -0.000000 -0.000000 -0.000000 -0.000000 -0.000000 -0.000000 -0.000000 -0.000000 -0.000000 -0.000000 -0.000000 -0.000000 -0.000000 -0.000000 -0.000000 -0.000000 -0.000000 -0.000000 -0.000000 -0.000000 -0.000000 -0.000000 -0.000000 -0.000000 -0.000000 -0.000000 -0.000000 -0.000000 -0.000000 -0.000000 -0.000000 -0.000000 -0.000000 -0.000000 -0.000000 -0.000000 -0.000000 -0.000000 -0.000000 -0.000000 -0.000000 -0.000000 -0.000000 -0.000001 -0.000001 -0.000001 -0.000002 -0.000002 -0.000002 -0.000003 -0.000004 -0.000003 -0.000007 -0.000007 -0.000007 -0.000014 -0.000014 -0.000014 -0.000028 -0.000028 -0.000028 -0.000055 -0.000055 -0.000055 -0.000106 -0.000106 -0.000105 -0.000203 -0.000202 -0.000199 -0.000384 -0.000380 -0.000371 -0.000726 -0.000705 -0.000678 -0.001377 -0.001291 -0.001200 -0.002678 -0.002315 -0.002026 -0.005411 -0.003867 -0.003101 -0.007720 -0.004867 -0.003659 8402.365327 6415.119528 5047.789520 6885.991583 8413.695874 5040.099229 5258.135468 3181.438773 3586.688037 4623.557034 -396.918729 1495.842684 232.920018 297.014637 255.158060 -41.610801 -344.348288 -552.545675 -653.989223 -679.182396 -660.234996 -617.953734 -563.551556 -503.034050 -440.163562 -377.780166 -318.177677 -263.116240 -213.777727 -170.774702 -134.224253 -103.861408 -79.162615 -59.457964 -44.021237 -32.135028 -23.133051 -16.423973 -11.501505 -7.945018 -5.414120 -3.639832 -2.414254 -1.580010 -1.020315 -0.650153 -0.408760 -0.253470 -0.154814 -0.092722 -0.053598 -0.027623 -0.011668 -0.006261 -0.004234 -0.003440 8630.212943 7112.371002 5455.046536 6025.752236 6926.884297 4312.137785 4275.699151 2343.236195 2232.473795 3409.157314 -115.785911 549.518696 423.820441 429.704165 254.457592 -51.079667 -350.666205 -554.840009 -654.373043 -679.033197 -660.038741 -617.812552 -563.468796 -503.001562 -440.174981 -377.828803 -318.255021 -263.212561 -213.883460 -170.881647 -134.326200 -103.954250 -79.244109 -59.527329 -44.078737 -32.181585 -23.169949 -16.452638 -11.523358 -7.961378 -5.426154 -3.648534 -2.420441 -1.584337 -1.023293 -0.652170 -0.410106 -0.254358 -0.155409 -0.093181 -0.054189 -0.029524 -0.014457 -0.007543 -0.004677 -0.003628 9179.481965 8039.629531 6672.815096 5922.553592 5230.806765 3799.123989 2698.364207 2012.861291 1951.243919 2070.550231 1076.710557 727.516095 605.800939 490.480800 262.318384 -60.999666 -360.850766 -560.810883 -657.135303 -680.180393 -660.511104 -618.021588 -563.566204 -503.036629 -440.163809 -377.780096 -318.177617 -263.116213 -213.777716 -170.774698 -134.224251 -103.861408 -79.162615 -59.457964 -44.021237 -32.135028 -23.133051 -16.423973 -11.501505 -7.945018 -5.414120 -3.639832 -2.414254 -1.580010 -1.020315 -0.650154 -0.408764 -0.253484 -0.154867 -0.092916 -0.054297 -0.030426 -0.016181 -0.008597 -0.005071 -0.003768 11783.839027 12083.943235 13346.369659 13112.879721 10177.688244 8671.232060 7175.237974 6667.276353 2033.435661 907.694118 5178.451958 -361.805378 -5406.629805 -3056.544306 -871.093092 1345.215865 3199.822130 -417.176661 -3495.700641 -2241.665898 -601.210429 47.456740 -3529.439278 -5604.082532 -4978.034024 -4569.983155 -4253.587138 -3991.914299 12045.020634 13163.128793 14719.972726 11619.616687 7643.561706 12913.438065 7047.767459 10624.409956 6000.918570 11707.504357 10095.936939 6875.678339 9983.314526 11995.440492 8927.876387 11840.762665 6604.143103 11618.633497 7622.032505 10814.432083 8770.849489 8908.502556 6552.411087 7110.671599 7598.545630 5244.126352 240.219202 -7926.799095 12253.720044 14268.549375 15814.237877 14708.645451 11454.500066 10759.014640 12114.335338 13914.506182 14913.453336 11999.376227 11166.763362 12375.962268 8503.207507 7258.244995 7997.306215 11374.234318 8812.714807 10982.964934 8254.201796 7652.251446 2914.058143 4806.690998 6413.864100 3745.988984 5036.936002 3338.206302 3825.614326 -41.726078 11915.964410 11943.236298 11798.148089 13695.163390 12036.622925 12236.254881 9096.655559 10304.123767 12612.687378 7510.858342 9988.250723 14211.580651 7463.126284 5551.787699 8053.346279 4181.689229 3595.587988 1907.143006 5092.441044 10366.385892 757.642657 7046.814205 7004.307464 2783.594956 3420.583315 5189.363631 966.408537 1658.363799 11582.092414 10100.172343 10596.602941 15698.241466 13496.921340 15128.004488 14456.398208 15089.791469 18063.406624 14861.215659 10771.484963 13963.412439 11920.204243 6121.972212 12802.948205 11203.938456 7545.452251 11444.617336 9263.334360 7368.297172 4441.697654 7517.865205 3136.297990 1852.241624 419.476065 3570.115319 1291.623671 1355.115629 11805.711237 11358.500772 13437.266784 15956.578730 17335.506267 15764.896202 17578.015016 16091.228312 17355.126236 11572.229537 7798.869874 5525.456154 10388.090450 12451.771671 11419.104466 8196.911579 8213.233544 6391.883640 4409.028212 3296.231506 9548.490683 7670.349412 5714.735861 2437.278823 6584.177267 4451.865782 1506.459013 1710.483694 12395.535942 12614.725510 14522.523362 19751.867724 16235.958281 14886.164389 12675.202247 16247.906667 15552.083854 14596.357719 15820.543708 16356.141170 11787.801746 9661.578170 9781.253117 9853.771176 12621.459068 10709.457657 9893.899014 6688.738628 2382.608495 7582.437043 2260.916845 4653.130953 2774.865629 541.697326 570.709885 1370.233211 13119.030627 13954.447808 15210.039467 16086.536094 19653.336725 18779.226851 17260.207287 14147.402760 15983.201743 16158.081727 15579.085503 11652.331276 13681.031393 16480.586881 17183.403620 14292.836478 10909.182312 11273.477174 10601.291753 10959.579025 8844.597413 8024.194992 4816.961082 4456.225179 2439.612174 2497.068862 1721.937993 296.609142 13710.373632 14329.039752 16065.546765 21660.563155 17860.913843 18232.587336 16850.067674 17976.781633 16849.649066 18861.188632 15297.841267 18060.142735 13092.635146 14337.657673 13007.885403 11018.411893 11698.332635 12712.247139 6916.969160 6845.251280 10078.931734 8848.728531 5677.242225 4976.659912 7914.166416 1730.391332 4218.192917 3316.636024 13952.322698 13456.822189 14898.448126 19292.830627 19607.738304 21714.687414 20435.114768 18294.081715 18386.278448 16694.052217 16174.037659 17260.516448 14818.381412 14097.727226 9636.495569 10395.031351 8108.802620 14632.019428 10178.014755 11746.386151 9711.081316 7452.631593 7088.804361 7519.265377 6583.942109 2334.038481 4628.202969 7839.851525 14242.544615 14042.175214 12895.589501 21605.272547 20462.542856 19968.472738 19260.546936 17779.667835 16107.352561 18810.663380 17508.773993 17160.762675 9293.936895 11564.892392 13183.516232 16204.402480 9706.204683 10716.332326 8487.298663 8780.049875 12770.714053 6572.744879 5726.038395 8328.548152 4095.314814 6196.419227 1808.344616 -1761.899922 14717.460853 15456.758715 16751.341637 22573.924990 22429.079114 23697.754964 20228.410286 22453.321107 12207.336636 17046.127319 11530.691783 18894.847701 14341.966514 17484.263119 10742.646302 13456.253916 11423.479160 1358.938979 6701.512001 7072.537246 8981.860640 11620.912564 6703.774758 6689.830629 6147.848798 6879.522675 4027.445966 3234.964443 15129.344038 16242.380499 17912.797966 21764.865451 24910.725886 18664.878005 18534.423749 15805.391418 12448.267358 17280.440976 14200.412345 14919.931860 14982.510437 5071.460693 6908.653284 3018.948064 11001.527044 3256.365103 9555.188887 16084.840232 10803.237177 11921.654815 12172.763433 6281.403150 7127.638991 7375.962543 5750.760191 6353.780948 15416.813354 15573.154363 15901.959973 21294.259137 21294.195701 21144.657068 19148.485153 20022.858309 15755.483142 17427.094035 12971.705075 5744.066223 2907.684589 2044.483528 1713.582892 6396.141458 5726.549075 4138.126401 3773.403508 2612.200049 -1165.534535 1726.131494 1908.230136 11524.815679 1017.147358 7701.781484 6870.903364 9727.445290 15814.613903 15258.639765 15396.899674 21678.268430 19946.692525 21698.232965 20732.344450 18033.820449 15789.665958 16234.602094 9239.248206 8208.298636 2060.227669 465.398010 4027.409142 1360.205067 2375.258455 3482.669363 1776.996829 4608.549619 1711.691446 2059.012143 1465.024690 1104.457594 3832.219809 1992.696365 1098.802301 5502.690733 16362.499303 16618.424617 17848.469691 21658.305437 21316.516981 19012.129200 17717.980325 16516.415644 17161.115612 8247.685148 6779.437092 782.531660 137.460861 16710.498255 17650.266588 19122.239460 22722.280909 23041.326607 22107.812697 20848.096591 17403.018057 19819.765204 13297.255469 1836.554945 4115.483537 1068.926340 16850.899302 17429.294278 17475.131567 21913.592850 21259.082781 18000.573418 17500.676982 18014.038903 8871.037815 5574.095479 4795.078451 5594.135859 7860.208140 17143.803393 17703.937947 19506.113463 21211.040056 21513.800831 21009.374182 18395.233511 12796.570637 10802.428331 8783.047665 2000.358263 2702.248913 4320.984428 17645.664071 18408.590342 19830.475576 22594.542126 21064.767843 18931.582571 18717.163182 12353.232233 7647.170028 6199.723164 3915.413378 -1070.007594 1076.634905 18166.660429 19008.826756 20124.507552 22530.577696 20215.251512 22629.443637 18536.036370 10881.677816 8464.143236 1442.395350 7436.467773 2423.626261 949.564848 18652.241247 19550.100208 20567.721604 22421.460438 22973.877666 20727.889758 16434.949779 15428.133055 10699.708135 9593.167087 5224.813740 1973.243333 1694.666076 19135.125737 20649.172656 22871.333148 24335.319416 20075.541231 14911.269040 14333.639369 12574.898321 7962.845833 4814.257016 8623.000256 2678.209295 510.415011 19380.780589 20137.336973 20910.771262 21999.694192 21337.856799 17330.554006 17438.511814 14116.705751 15463.425305 4849.829471 4471.530060 5692.037498 2375.742530 19575.288104 19884.817899 20043.623215 22150.910555 20831.548784 18936.242609 18343.970709 13993.355739 11800.882785 8147.528294 5882.727894 11186.330883 9397.683769 19883.621160 20089.472404 20966.616579 24592.493363 18297.199918 21028.116724 18795.052708 12735.672621 11574.646439 13012.422027 9504.619454 8339.019267 -6490.969781 20354.755594 20874.693826 21473.712706 22946.024031 21608.744420 18100.217980 16835.343779 13682.584187 13275.038071 8226.785273 12634.592193 792.498765 554.389753 20962.508802 21692.630144 23035.503205 24986.962271 22066.333194 19538.979222 16444.406293 19162.269232 5483.088600 8306.145520 4066.555074 4761.301784 1260.958556 21542.783934 22152.594737 22815.505333 20622.284107 19514.024036 18640.766490 20765.841401 15647.285459 10385.573545 14979.161100 8396.967156 10427.280245 6033.337312 21939.719597 22431.257245 21753.775051 23462.035215 23022.838354 22770.150736 18086.671921 21973.493065 14511.947079 12911.002255 4342.763764 5953.760936 5647.005979 22033.397384 21818.620432 19831.921308 22547.087578 23612.332094 23260.162743 20546.643032 22719.846765 15484.913811 13164.649288 8016.695470 -2186.226400 88.951836 22121.427071 21825.483978 20227.247841 21532.459049 22364.758008 22733.219710 21204.926542 17314.436085 8106.173404 11266.838799 7074.459731 848.857530 2444.968694 22195.934718 22515.372301 22003.290502 24913.199538 26170.142071 23099.089346 18399.745106 14694.902620 16107.915873 15326.514094 9660.615452 1649.729955 12068.399365 22047.067452 22671.549834 22886.098614 25441.558809 24086.708002 22827.959197 20034.940442 17263.042567 14496.560209 7121.907227 7710.550914 8991.938289 4282.731577 21865.962606 22497.718232 22505.369363 24765.794537 25173.976418 23819.410963 22529.045954 19397.354209 13877.196944 11100.431813 7935.546133 10065.751172 1988.792041 21903.337370 21608.506495 21363.422866 27166.704622 28748.457383 23248.163325 20066.285949 11562.989832 14533.245857 11830.974509 9570.529104 8181.805592 6269.965106 22065.554523 22094.828120 23271.135826 25272.030565 24883.098083 24775.474019 23069.592955 20523.881571 18466.734515 15499.942469 12818.284980 7897.622981 5588.571025 22174.764302 23188.862551 24630.193571 24162.096610 25344.808637 24535.899317 22263.550635 19211.293907 15774.330953 12809.982458 8446.109803 3742.019713 1379.511979 22361.848001 22706.814401 23109.943937 26700.400260 25277.571563 21349.600506 19819.810892 16623.010876 14483.253660 12350.494561 10163.596827 7607.790149 70.473558 22815.064550 21813.695027 20612.498279 25026.593512 24482.960276 22629.669622 16859.133862 19951.929531 15167.749144 12578.108344 9507.941509 7005.929876 1169.534035 23480.468081 22552.961663 20666.320479 24971.145995 25031.569535 21108.863420 21594.999380 17821.018703 18908.931180 12457.627716 6383.415122 4610.050523 1129.411362 23778.506995 24161.843231 23888.803431 24946.908921 26799.287300 24491.466234 22754.694491 20443.897642 15728.118236 13710.705955 6713.426518 5795.473273 -5719.282304 23640.472017 23985.642012 26395.646642 26425.162545 26754.449332 24454.169371 18306.865886 18438.286989 11135.527455 8655.305783 5844.950902 6433.071117 2314.807848 23846.190443 23267.211667 22973.459196 26577.500354 23333.578136 21565.303854 22742.748872 15871.882022 11019.877676 11574.471653 1953.539049 4896.384823 -2711.295557 24552.746535 23762.445697 22690.393054 24951.189160 24868.010436 24830.133508 22554.302983 21474.556495 16817.460374 13747.672223 8656.560705 5089.092481 1749.442682 25025.546575 24426.808528 23379.879610 26408.564197 29818.685012 26566.416634 22293.428349 22863.829933 16946.088648 11503.424343 10959.530950 3875.019478 4865.313900 25114.296921 24928.118856 24521.162352 28273.711486 23988.198173 20881.974193 23735.211717 18675.153028 15642.182582 3986.524191 5849.294300 6568.386370 -644.141335 25043.664128 26861.314721 27680.748266 27202.644553 28374.961340 27423.414186 19008.693087 17337.735386 14188.878416 9926.844542 6630.402337 6459.960104 4310.694532 24984.990504 24923.894438 22139.482987 25856.566204 27556.736918 26977.813368 20778.712527 15050.789181 16953.247651 13596.960447 11743.922130 9712.317559 7109.684567 25278.660697 25533.682300 26470.114200 24610.268683 25877.072052 22354.044443 23351.132790 18735.998663 16558.099753 13621.658702 10676.992323 7218.751226 11148.451651 25447.887441 26373.870054 26399.942885 26187.507819 25643.184587 24608.844222 23005.373545 19202.047065 13405.245249 11319.412686 8444.655286 4426.811006 6323.641028 25309.816247 26752.910967 26853.048999 24475.894279 25383.638373 23622.817873 19324.834290 22004.999229 15741.319610 9691.920099 8548.282061 8566.911163 -941.440775 25022.859250 25214.699209 24047.192832 24807.488952 26464.793964 25648.168824 18418.834678 16634.408605 13063.260479 11114.765746 9833.059189 7054.891364 -4957.253449 24918.160907 26295.919337 28231.863666 25979.851773 24811.890509 26936.931669 20076.470770 15859.305007 14190.253974 9173.210544 9277.929385 -1886.816285 3330.241046 24890.605883 24329.133973 22761.229921 23996.428480 21672.439680 27997.884875 19099.781034 18965.051931 15843.594106 12174.254126 5929.859621 10050.720058 13699.155708 25250.637183 25491.842897 27253.322021 27176.429200 21315.768121 29322.872798 21023.604117 19356.874851 16848.502296 14166.583211 9564.183774 8125.520383 6906.067275 25604.890288 25567.277489 25585.617825 27639.354075 23688.817507 28778.999980 21691.113395 17756.650627 16893.085082 13626.034492 10784.841845 5811.648821 5699.256465 25842.908049 27940.482467 27713.373181 27974.844492 26117.789616 26220.994772 23221.937064 16350.934738 19060.366609 10484.131179 11193.941601 5512.466764 3218.535296 25805.513823 28315.051700 29747.948232 28078.828782 24936.137011 25853.281391 25480.848085 19237.242994 13490.296745 11950.778035 11429.483801 3340.287859 2216.828262 25533.389414 28441.002954 29699.867514 26797.092352 24434.215421 23301.981792 24400.385289 20156.344898 14583.596307 11392.368533 4110.151921 -2789.021406 821.221771 25079.119593 24346.974916 24806.337749 26877.071357 24195.079734 23756.124897 21889.671835 21020.485595 17742.288369 12761.205868 4266.401642 10364.364203 3243.718404 25182.278532 25356.949727 26017.116503 26464.225518 25166.339331 24360.925642 20287.206281 21662.276087 18928.736617 12824.231425 8815.354113 2589.504290 -4973.503277 25439.382780 26649.781531 28885.050188 27040.879928 24686.992484 26960.951813 19982.716146 22095.365346 17968.684935 14112.901770 6804.904039 318.939429 8500.956454 25386.755052 24462.785915 24554.270140 23922.328134 24608.688620 26707.726595 20394.173446 22270.287735 17762.756860 13047.780206 8278.739285 6590.246930 5401.582514 25166.615549 24117.960772 25776.790015 25624.668271 25910.078539 25074.015670 21357.643610 22385.855527 18199.783503 12336.387437 8080.293141 11974.268125 7406.853678 24626.551352 23134.044840 23330.463402 23520.138876 27396.534460 23270.978537 22602.435079 22127.085240 19372.934279 12819.139690 10211.122616 8496.767280 19387.049392 23954.424754 23194.452493 24710.982180 21237.973534 27480.527535 22104.190660 23873.876730 21128.010357 19702.430786 12820.749046 11889.777746 8652.506321 21771.751414 23560.061075 24175.905371 27304.069803 22610.422266 28262.825469 21879.645928 24094.560844 20553.433049 18304.119729 13329.953676 9658.658207 4277.296444 2291.550715 23513.742331 26274.540519 29761.960838 21374.430047 28216.416872 22261.443085 23280.793973 21188.025416 16552.204238 14286.495837 9628.920772 876.443794 1753.446865 23238.186686 25948.010686 28164.055352 23706.639112 27123.788177 22767.427418 22638.696463 21810.755666 15923.772800 15419.103711 8231.729605 5445.064839 -775.073193 22808.040064 25460.343507 26263.805707 23071.923640 26225.797957 23407.229369 21558.116886 21310.707709 16005.229759 14862.476279 7218.974323 6326.883471 -2141.967754 22395.908033 26816.354932 29307.364355 21292.000674 25109.581363 23719.056493 20837.541298 21095.364008 17498.921914 11677.105641 8899.753633 7822.878779 -2217.961583 21834.503974 24820.489273 26438.602946 24165.504772 24113.775864 22896.835799 20679.716298 18773.684209 18623.951094 8306.878109 9616.355864 3141.552663 -1733.520575 21552.079979 23785.655408 25561.263643 22529.777174 24308.621852 22672.017398 21150.052658 17008.307338 18882.707654 7482.198200 11558.296080 5004.262945 -1171.480567 21488.486871 24835.585043 27133.940465 23045.105294 21389.456372 21465.538775 21011.539249 15125.638648 17517.247979 7646.478096 11617.431692 7336.877649 -2636.856965 21066.261991 24145.886598 26209.085677 23363.318210 21430.617428 19454.506524 20994.435148 15152.214796 17754.423329 8956.918328 9031.920397 6192.521081 5899.979249 20365.051442 20851.393818 23923.944062 22242.003106 20375.990454 20516.042946 19530.223146 14560.452290 15596.550737 8263.153615 6897.546924 8488.963035 6428.023089 20102.621633 19685.823276 21273.247554 22933.480656 20545.551111 20672.172030 18644.250532 14437.611822 14992.139849 8847.079763 6191.658210 11832.085075 1658.535713 20313.734567 20773.477374 22682.305351 22625.965370 21710.507472 19741.607840 16939.024428 14537.284890 12230.223566 9733.214602 7360.224039 7268.241624 624.141442 20351.784139 21120.463667 22587.923757 21945.868217 21328.561251 19544.400847 17328.736051 15545.794809 11873.124976 12095.838095 4535.584325 5167.275125 12952.353699 20033.124144 20753.358726 21935.360272 20907.944285 19588.090039 17718.244185 17011.677579 14943.535839 11652.926843 14053.632612 2776.049244 12924.328765 -2131.423834 19576.071804 20435.993027 21844.133951 20107.858946 18616.488065 18112.819520 16671.093633 15529.803294 11627.270379 12943.495790 7415.827775 13495.765417 11969.271679 19202.034021 19790.647590 20665.212220 18217.927030 18837.383415 17640.095180 16174.202371 15104.182525 12669.992080 12921.249225 3167.403544 13025.645809 4915.280053 19004.137338 19473.866407 20223.061191 19350.744368 18450.746552 18104.415609 15896.117716 14835.545688 12022.727064 11867.073667 9172.270994 14140.300457 10490.457917 18802.373921 19033.846798 19537.718548 19132.617314 18645.339901 17324.860448 15973.609325 14265.920090 11529.248878 11765.745569 5154.063768 8744.997433 5343.339286 18605.524429 18934.668469 19468.403772 19133.918058 17529.437101 17540.059381 14168.222255 13556.430145 10867.504691 10779.554927 6465.683357 5407.499201 2922.541476 18479.781131 19366.101484 20125.865957 18766.003683 18372.446506 15955.182067 15810.659671 13969.521793 10084.546825 9219.883308 5385.111859 5204.876727 3714.748978 18246.687618 18571.141696 18683.795864 19025.868447 17093.077030 16237.372625 14407.014297 11936.796751 9743.528936 7464.975929 5046.312146 3015.530426 2352.739930 17980.195782 18085.347402 18977.872175 17613.424621 18462.270644 16207.160204 13775.210612 10225.992252 9783.726941 7674.870858 4866.456246 3035.189200 2361.220608 17679.093434 18174.082382 19050.430443 19032.988380 15940.981313 13537.144252 12384.831873 10816.891924 8874.345511 6555.526463 3634.787960 2403.213030 1713.017896 17175.327608 18168.713988 19475.034232 16685.657780 15539.186095 13262.835684 12018.203415 11476.726034 7794.194194 3971.236747 4071.740995 2372.559481 2309.782297 16486.955274 17075.197483 17780.959426 16192.697053 14360.389859 13485.672187 9206.560356 8223.192411 7899.640162 6202.118158 2361.402582 1529.742003 2755.421205 15758.083431 16089.738805 17212.201369 16405.549363 15966.400254 13599.165294 8704.708847 8860.973482 6645.564330 4934.107135 3250.041591 2241.356612 1600.410699 14794.533847 14478.442902 14527.644794 14309.697977 12051.286246 11573.196681 7229.608301 6303.903938 6316.383269 3929.143501 3128.071252 2133.715545 964.694119 13656.317809 12079.490228 10350.122978 12175.073133 8625.301301 9392.215364 7124.124896 4274.366372 5965.527441 1900.301000 3986.652562 2761.570362 1822.327511 12770.406739 11853.886824 9527.867657 11633.135128 9026.306560 6999.809140 6381.080182 5217.517513 6549.297245 3206.997668 3476.898366 1413.129210 1587.683071 11910.847288 12321.670538 11637.104556 8766.247013 10212.049740 9261.465160 11854.259534 6974.992557 6503.099552 4885.917631 6061.065951 1582.626167 511.154842 10786.969349 11839.644417 12213.814557 9192.092398 10660.772051 8546.944227 10620.265098 7467.725269 12277.458756 7576.694412 7416.596637 3152.859006 2616.504957 9661.602181 9540.686622 8600.520142 10099.025047 11189.341018 10401.667075 12129.925873 10363.584692 11342.208045 11406.998313 9139.162039 10117.019099 4058.376109 8865.711495 8784.923064 11797.808064 7478.341382 9791.433275 11533.183571 8978.258169 8692.557907 7993.109269 8737.232189 11026.833033 11982.478945 7138.548319 8402.365327 6415.119528 5047.789520 12891.005079 15414.703432 11474.916650 13225.802869 11395.554488 13438.581263 10358.470285 8499.430394 5061.252641 8851.042664
</DataArray>
<DataArray type="Float64" Name="Velocity" NumberOfComponents="3" format="ascii">