<VTKFile type="PolyData">
<PolyData>
<Piece NumberOfPoints="2177" NumberOfVerts="2177" NumberOfLines="0" NumberOfStrips="0" NumberOfPolys="0">
<PointData>
<DataArray type="Float64" Name="Pressure" format="ascii">
 22109.639466 22023.531413 21597.622624 20774.205063 19890.339955 19201.362874 18339.319966 17041.337613 15364.500417 13414.154079 11254.238534 9026.374017 6850.319871 4668.368975 2620.078132 1158.238552 579.577412 425.033469 -47.755266 -812.816073 -1203.393903 -1209.998314 -1398.412483 -2095.719381 -2840.105001 -3176.987980 -3186.635683 -3041.550209 -2814.853982 -2539.402999 -2239.454715 -1931.260593 -1626.915838 -1337.429615 -1072.353620 -838.613084 -639.861857 -476.584276 -346.722761 -246.530680 -171.410137 -116.592947 -77.612273 -50.573557 -32.264825 -20.155568 -12.329229 -7.384363 -4.328579 -2.479905 -1.383254 -0.745097 -0.385007 -0.194842 -0.104810 -0.071148 22354.549440 21877.189314 20741.093928 19121.107347 17786.027809 17179.677968 16072.760545 14571.251708 13391.132713 12322.499083 10541.820304 8271.964752 6198.152119 4031.491358 1721.587976 168.513522 246.275928 920.127680 329.972996 -1356.041698 -1621.819400 -1132.104974 -896.345998 -2227.540768 -3458.767277 -3575.453963 -3390.744227 -3149.978163 -2871.297748 -2561.540711 -2246.998830 -1933.771803 -1627.943736 -1338.095981 -1072.969692 -839.232848 -640.466398 -477.143037 -347.212840 -246.940946 -171.739770 -116.848273 -77.803583 -50.712573 -32.362972 -20.222980 -12.374301 -7.413656 -4.346864 -2.490046 -1.385300 -0.736108 -0.363984 -0.178053 -0.096344 -0.067118 22378.379238 20974.502758 17862.100555 14732.488619 12681.738777 13769.677541 10206.802706 7948.858051 8520.282309 10394.749334 8754.385270 5539.761362 4562.963999 3075.571722 137.526081 -2460.627156 -322.898310 2462.248718 1329.536567 -2951.517808 -2620.430052 -757.058045 439.353745 -2587.168746 -4811.303241 -4184.098040 -3651.993718 -3310.254338 -2974.432168 -2591.465340 -2255.239259 -1936.102078 -1628.400885 -1337.886384 -1072.494551 -838.656727 -639.875434 -476.588525 -346.724102 -246.531107 -171.410275 -116.592992 -77.612288 -50.573562 -32.264823 -20.155555 -12.329177 -7.384161 -4.327808 -2.476961 -1.372267 -0.699929 -0.298305 -0.140399 -0.081450 -0.060297 -0.144976 -0.084794 -0.059673 -0.071657 -0.053268 -0.041790 -0.031389 -0.027501 -0.023845 -0.014560 -0.013627 -0.012568 -0.006799 -0.006588 -0.006281 -0.003160 -0.003118 -0.003026 -0.001452 -0.001447 -0.001417 -0.000656 -0.000658 -0.000648 -0.000292 -0.000293 -0.000289 -0.000127 -0.000128 -0.000127 -0.000054 -0.000055 -0.000054 -0.000023 -0.000023 -0.000023 -0.000009 -0.000010 -0.000009 -0.000004 -0.000004 -0.000004 -0.000002 -0.000002 -0.000002 -0.000001 -0.000001 -0.000001 -0.000000 -0.000000 -0.000000 -0.000000 -0.000000 -0.000000 -0.000000 -0.000000 -0.000000 -0.000000 -0.000000 -0.000000 -0.000000 -0.000000 -0.000000 -0.000000 -0.000000 -0.000000 -0.000000 -0.000000 -0.000000 -0.000000 -0.000000 -0.000000 -0.000000 -0.000000 -0.000000 -0.000000 -0.000000 -0.000000 -0.000000 -0.000000 -0.000000 -0.000000 -0.000000 -0.000000 -0.000000 -0.000000 -0.000000 -0.000000 -0.000000 -0.000000 -0.000000 -0.000000 -0.000000 -0.000000 -0.000000 -0.000000 -0.000000 -0.000000 -0.000000 -0.000000 -0.000000 -0.000000 -0.000000 -0.000000 -0.000000 -0.000000 -0.000000 -0.000000 -0.000000 -0.000000 -0.000000 -0.000000 -0.000000 -0.000000 -0.000000 -0.000000 -0.000000 -0.000000 -0.000000 -0.000000 -0.000000 -0.000000 -0.000000 -0.000000 -0.000000 -0.000000 -0.000000 -0.000000 -0.000000 -0.000000 -0.000000 -0.000000 -0.000000 -0.000000 -0.000000 -0.000000 -0.000000 -0.000000 -0.000000 -0.000000 -0.000000 -0.000000 -0.000000 -0.000000 -0.000000 -0.000000 -0.000000 -0.000000 -0.000000 -0.000000 -0.000000 -0.000000 -0.000000 -0.000000 -0.000000 -0.000000 -0.000000 -0.000000 -0.000000 -0.000000 -0.000000 -0.000000 -0.000000 -0.000000 -0.000000 -0.000000 -0.000000 -0.000000 -0.000000 -0.000000 -0.000000 -0.000000 -0.000000 -0.000000 -0.000000 -0.000000 -0.000000 -0.000000 -0.000000 -0.000000 -0.000000 -0.000000 -0.000000 -0.000000 -0.000000 -0.000000 -0.000000 -0.000000 -0.000000 -0.000000 -0.000000 -0.000000 -0.000000 -0.000000 -0.000000 -0.000000 -0.000000 -0.000000 -0.000000 -0.000000 -0.000000 -0.000000 -0.000000 -0.000000 -0.000000 -0.000000 -0.000000 -0.000000 -0.000000 -0.000000 -0.000000 -0.000000 -0.000000 -0.000000 -0.000000 -0.000000 -0.000000 -0.000000 -0.000000 -0.000000 -0.000000 -0.000000 -0.000000 -0.000000 -0.000000 -0.000000 -0.000000 -0.000000 -0.000000 -0.000000 -0.000000 -0.000000 -0.000000 -0.000000 -0.000000 -0.000000 -0.000000 -0.000000 -0.000000 -0.000000 -0.000000 -0.000000 -0.000000 -0.000000 -0.000000 -0.000000 -0.000000 -0.000000 -0.000000 -0.000000 -0.000000 -0.000000 -0.000000 -0.000000 -0.000000 -0.000000 -0.000000 -0.000000 -0.000000 -0.000000 -0.000000 -0.000000 -0.000000 -0.000000 -0.000000 -0.000000 -0.000000 -0.000000 -0.000000 -0.000000 -0.000000 -0.000000 -0.000000 -0.000000 -0.000000 -0.000000 -0.000000 -0.000000 -0.000000 -0.000000 -0.000000 -0.000000 -0.000000 -0.000000 -0.000000 -0.000000 -0.000000 -0.000000 -0.000000 -0.000000 -0.000000 -0.000000 -0.000000 -0.000000 -0.000001 -0.000001 -0.000001 -0.000004 -0.000002 -0.000001 -0.000007 -0.000003 -0.000002 11514.616560 12351.214679 11745.420498 10931.953591 8022.036561 8526.417428 4090.582373 1306.717033 8829.435801 -86.167476 3643.509071 1312.588084 -773.855049 -1294.862324 -1923.472593 -1816.540739 -1596.769826 -1357.352717 -1139.096762 -950.822696 -787.959319 -644.699232 -517.994230 -407.172730 -312.465563 -233.884055 -170.731474 -121.585527 -84.520404 -57.394074 -38.100445 -24.743886 -15.731108 -9.795517 -5.976273 -3.573228 -2.093868 -1.202475 -0.676679 -0.373066 -0.201460 -0.106536 -0.055158 -0.027955 -0.013866 -0.006731 -0.003197 -0.001486 -0.000676 -0.000300 -0.000129 -0.000050 -0.000014 -0.000005 -0.000002 -0.000001 11134.132019 11289.971396 9892.473421 10237.636316 7847.616289 7917.918092 5923.633529 3658.472370 9558.386220 2396.484260 1366.815090 -1032.797828 -2427.358464 -1927.787610 -1845.741346 -1763.640590 -1575.812292 -1350.669309 -1137.322509 -950.519850 -788.051647 -644.898803 -518.234671 -407.433999 -312.731742 -234.139068 -170.962005 -121.783159 -84.681913 -57.520493 -38.195623 -24.813062 -15.779798 -9.828795 -5.998407 -3.587579 -2.102949 -1.208089 -0.680071 -0.375069 -0.202616 -0.107188 -0.055518 -0.028148 -0.013968 -0.006783 -0.003223 -0.001499 -0.000682 -0.000303 -0.000131 -0.000053 -0.000019 -0.000007 -0.000003 -0.000002 10510.092253 10624.614251 10244.913797 9823.544707 8483.362478 6765.609204 4812.892122 3413.617712 4474.709553 2641.390460 920.817625 -501.721785 -1301.435687 -1587.635888 -1722.325415 -1710.333357 -1555.635646 -1343.255709 -1134.540088 -949.405261 -787.530920 -644.572419 -517.957158 -407.161951 -312.462437 -233.883153 -170.731217 -121.585457 -84.520386 -57.394069 -38.100444 -24.743886 -15.731108 -9.795517 -5.976273 -3.573228 -2.093868 -1.202475 -0.676679 -0.373066 -0.201460 -0.106536 -0.055158 -0.027955 -0.013866 -0.006731 -0.003197 -0.001486 -0.000676 -0.000300 -0.000130 -0.000054 -0.000021 -0.000008 -0.000003 -0.000002 22223.834681 19732.995258 14597.899671 10354.615611 7785.876660 11128.187953 7023.875347 5004.977081 5481.575071 10046.601651 6472.702476 2138.437961 3567.342532 -235.961501 -3061.263650 -4980.713383 -749.853231 3285.973191 1743.022162 -3667.964177 -3075.817284 -623.335038 798.441771 -2844.141885 -5346.282451 -4396.625438 -3729.000203 -3374.946560 22037.523399 18277.316763 11998.544409 9487.994718 11086.619092 11024.782810 6837.339683 10106.081022 9361.209572 12907.485024 9577.027391 7341.334803 9459.608446 9023.534120 10203.041092 11560.414301 9474.173393 7767.890937 5737.625932 7882.789639 4447.645195 3859.091008 4918.108030 3806.890705 1812.907663 1614.233436 315.518670 -1763.075944 22710.351078 19992.643915 15861.042206 12735.701071 12642.492012 12067.043922 15643.697595 11229.099340 12756.889331 11993.686366 12543.501967 8558.852025 11738.575718 10135.208083 10756.915866 5481.196689 8892.260967 9068.540427 7082.692047 4488.895157 4766.366763 5842.352233 5908.187489 3654.060274 2211.151117 653.435732 4143.151279 1633.149026 23868.763649 20080.326859 15175.278529 12613.477017 13853.693256 15302.905530 13002.727525 13670.535033 10551.036269 8563.373883 7117.449064 11431.082443 7369.409987 8042.991459 7144.872883 5029.244859 6864.696663 6582.469137 4638.502974 5207.881100 7281.501595 4231.342753 1730.646432 3102.210155 3385.358423 866.667484 431.394348 2030.028453 24907.147608 20041.609924 13914.247233 14660.865855 15585.627321 15084.353001 12389.294074 15359.066195 15348.354037 12115.004927 12975.985638 9210.366137 11740.816900 10331.513375 5970.462975 11677.720797 8091.911114 7701.479063 5950.573343 4385.978742 5848.958036 6852.096514 2883.373935 3507.233167 1079.899789 3061.827268 2282.887765 1451.827788 25374.380839 21713.642697 16242.731167 12779.896300 15383.439040 14021.238413 16110.512755 14135.105142 13293.091215 11659.921797 11524.453672 9333.626701 12314.837258 9987.519478 9043.559181 7199.949673 9023.300036 7026.941007 8315.906460 9436.960565 7773.430596 3496.182971 1313.233082 5576.150016 6369.818962 888.848894 2042.604417 2963.661050 25123.943102 21494.675283 14618.868101 16924.637506 16705.125768 16070.006510 12821.243467 15733.721433 12724.058785 13251.308825 14803.117499 11398.065282 11982.449816 8683.838247 9508.824231 8303.914510 10191.549282 9876.583074 6623.292825 7742.419972 5475.933004 8904.731048 2829.043229 7976.941427 5669.237823 1905.495949 2324.430717 2662.245186 24886.204600 21082.387109 15958.656520 16840.632211 13590.635230 14371.255961 15193.226820 10956.532736 15019.674203 13007.178621 13389.412923 11795.109417 10275.377969 12768.422365 12883.836855 11398.136763 8912.863812 6982.145198 6782.057610 5347.142041 6982.942307 4855.038365 583.794517 4038.108821 2724.813874 1546.368821 3125.947356 1991.932078 25044.105110 21973.012958 16956.837633 15876.753642 21859.157733 17653.246748 16366.297626 16983.961238 16951.964208 16124.478311 15559.290679 13458.343091 9307.216755 12804.954870 10063.329938 9907.296487 8896.276559 7646.422549 4893.443994 6623.339517 6245.262042 4882.252085 792.306568 5079.768215 531.227650 1104.517708 2401.485304 1867.190878 25272.864607 21553.456679 13841.019792 15989.595798 25796.876009 20874.055935 23112.745317 19283.305615 16888.152751 14237.165680 13508.410367 12915.344781 14371.509504 9801.456947 10124.179082 9583.075932 7645.949209 14540.796210 5902.706508 9693.219427 7274.798180 5846.499564 4337.863931 3725.615251 -1609.901262 1446.400904 4609.986296 1483.605050 25154.724344 23067.137787 17683.638483 18014.825762 21191.388539 19699.163792 20525.320421 17928.855100 15562.234225 17393.060863 15112.469045 14360.152992 13519.041888 12939.528132 11799.420269 12651.227518 11379.603930 10058.225259 10828.995416 7147.596334 8610.090072 7040.975311 6062.097099 3154.691619 -14.468759 1453.893198 6759.746902 723.020235 24330.132586 21421.972168 17416.360883 23361.303516 22341.378790 20773.299506 18064.927558 20888.367341 14141.868424 18978.052436 13663.550561 19499.340654 13873.502844 14662.390050 11800.465160 16323.348669 12687.096901 8302.646787 8966.036693 1325.723919 10476.392782 7132.998041 5753.820835 3081.552861 1349.551963 648.385836 7001.923327 1328.202633 23955.912488 19814.730458 13261.281276 23458.262998 23482.163859 22546.533729 20431.536649 19753.752586 16131.621939 18236.305846 17782.081756 13443.328895 19116.991116 8398.274225 8535.267239 4249.047780 8535.711911 5761.253116 8190.696796 11703.378228 14883.989928 11286.095219 11095.070946 6055.237764 4292.770656 6138.425518 4047.327761 3118.297202 24219.255248 20954.463045 18061.927343 23817.304586 21818.120606 20931.207376 22279.946123 20716.685669 19183.244461 19015.856678 13787.646029 12706.725034 680.708652 989.868388 3885.109604 2422.320612 8643.220658 1910.715324 9050.267421 6035.255248 6044.756630 11169.124393 5129.644071 7198.347779 7158.257837 8673.424518 7118.694506 4674.351904 24402.836405 20705.591280 14318.314791 23859.425224 23827.028578 24246.444552 23852.221959 21315.340883 20254.632893 19132.822540 13481.886278 12029.476826 3731.942218 2941.481942 1058.841795 1158.792392 7076.776411 7781.163274 3379.031625 3353.862713 -1195.498864 976.012322 2150.697509 4005.279382 3407.672533 2358.514025 6787.908725 749.110104 24160.487733 22501.863371 19999.451995 23812.514835 24511.067665 23302.813490 18152.576259 18923.512882 16721.948957 9984.244339 11092.290370 -2481.972763 -4806.820157 23919.848729 20906.060166 15561.715792 27382.317405 24184.530052 23823.545756 23051.394521 21685.182383 17273.633093 16877.811839 5468.106546 9056.257972 -3726.391452 24231.042356 22372.233100 17585.897453 27755.762245 23181.850308 23149.795581 20615.071687 19283.133275 14815.826581 10842.547751 4410.350806 4640.233841 7828.480354 24439.371721 20709.183176 15054.685206 26365.410575 26283.146580 23311.191354 21803.470115 19746.623820 15834.661263 12186.395441 4673.970961 846.275748 929.036007 24607.916802 20227.318152 14237.539795 26796.549877 25534.023567 23106.515605 21920.762630 17528.761840 15293.020647 9560.222007 3842.889890 1589.950378 7809.547405 24779.830159 22561.433971 16051.517719 24667.669232 23149.265862 26542.865004 20505.082374 14067.453216 16159.696701 495.756588 4429.464658 5749.492731 142.593703 24845.078264 23907.647145 20436.616660 26112.554476 25396.421070 22206.596604 20947.527493 15987.519839 8104.235918 9367.155060 10267.718402 6486.971643 -3036.260195 25101.253817 24519.497727 23582.176680 21728.780199 22550.932429 22753.891270 21862.062001 18502.776326 11785.209404 8899.642317 6226.435756 8154.032068 2310.077443 25356.609506 25313.558858 25593.240690 21409.859544 24214.816131 25721.371527 20358.172004 21460.928051 17048.961849 8273.251570 629.889784 6014.407904 -712.331973 25611.615189 24587.312595 22288.247657 24466.221807 24599.997588 24089.786178 23821.176689 20326.942510 16027.790735 6321.513527 5753.598091 4923.405148 5442.251137 25717.260367 26383.205817 25764.661542 22006.413356 25360.338554 24282.578297 22047.504591 15678.948724 17328.521200 14162.022220 11662.652797 4631.216795 3094.983769 25651.844130 25190.869957 24429.573157 24387.819283 28431.442057 21344.039272 23815.715011 14537.980972 19434.035439 12369.835042 7150.017817 5317.219824 -1109.400193 25372.224460 26068.984527 24961.230199 27480.473808 27829.520333 27554.693076 23743.271697 21188.933663 17188.575326 8956.159346 9087.123394 9499.037281 5598.862306 25067.765244 23339.439150 20589.026561 27481.384570 23839.100923 24387.392806 24061.220581 18087.672339 10022.560924 14853.403676 8279.913748 8016.821332 6869.157598 25524.185286 25067.042194 25887.184103 26955.585928 32477.743988 26121.360575 18575.538600 21877.161929 16818.208029 15233.673307 12659.762602 7593.092807 11767.579346 25912.671382 26840.924207 25676.910358 28430.660384 32505.530774 26348.904803 24416.638370 23970.711697 17381.739078 9768.907088 6015.371311 4625.491601 9583.528716 26147.433337 27610.421901 26168.259519 27374.563645 31013.601932 24281.793770 24862.477151 24160.248665 18325.332797 14435.773955 9475.202324 4123.233542 2377.843335 26316.127016 29685.871669 34198.466419 28769.119534 30071.283157 27653.385408 25677.174680 19318.118718 18982.666352 15888.477997 13283.400079 8338.159813 7467.514795 26374.185458 27670.682897 28373.771856 28554.198948 30292.375733 28222.206927 25955.882951 22155.117013 20505.340182 17096.793166 13184.013210 11560.668826 11144.358569 26566.655071 27634.016570 28302.022843 27287.006349 30258.417155 27644.440544 23801.558826 20125.242483 21020.908929 16946.517638 11290.306640 11535.388421 8208.644417 26634.438983 29787.420852 31350.426389 28012.269035 29984.176080 26549.757088 25244.694835 21278.560914 19238.965620 15416.235367 14313.186252 12379.656477 18125.542471 26434.912845 30635.983983 33942.196921 27351.815865 30984.135763 26320.137218 25028.211625 23823.685644 17419.538279 16872.518916 15131.119612 11051.263636 4577.973620 26138.304965 30568.564290 33880.146425 27630.516145 31438.868619 27168.203112 23974.156584 24658.364306 16478.236309 18402.053915 17202.014915 9135.632215 2289.799066 25678.431330 28910.957937 30104.298214 28505.851114 31647.099844 28498.812468 21888.354741 24914.278607 18141.570911 18479.322549 15119.883219 9325.918311 14165.252472 25018.199872 28400.867679 29162.104373 28641.100065 31309.816678 29162.148317 21781.700013 24373.470987 20926.866775 15928.556286 13581.419572 14663.545532 13568.552770 24311.251637 26211.445347 26344.451225 29134.109545 30689.598819 28919.365780 23186.803816 23000.176214 22810.484118 12022.090191 16454.084856 16271.597717 17284.153302 23940.540588 26138.822982 27987.340875 30528.753588 30527.822986 28219.771469 24570.311599 21049.583012 23764.423563 9772.022917 18910.924800 17441.789196 -1268.477939 23661.704629 25982.750678 29084.999093 31046.819679 30412.105755 27479.370941 25581.591830 19699.140473 23756.598378 11246.478991 17197.409314 21214.449564 12714.802949 23339.171744 25840.049670 29113.983491 30226.230471 29805.528119 26909.332289 26059.083410 19488.868772 22637.529882 14930.847982 14619.715040 22065.642185 19966.966348 23058.316622 25342.704294 28896.532173 30262.870430 29495.647164 26448.625262 26027.471658 19999.072539 20871.005622 18473.451580 11468.826537 23046.202355 21333.972641 22849.339941 24977.422655 28785.537375 30936.581967 29462.620227 26186.087053 25654.837021 20575.639459 19121.494274 20953.037551 8056.908252 25648.342959 25966.799138 22659.809394 24621.234839 27620.185059 30218.430895 28833.286569 26152.043604 25002.986769 20910.031774 17819.188536 21901.681918 5760.244481 27781.250449 25874.982463 22440.836104 24307.081019 27779.839927 28940.444199 27992.795252 26031.838482 24222.996458 20991.604505 17006.243753 21311.187823 5334.588874 27577.065680 27058.994597 22206.634722 23884.493236 27045.388706 28712.676192 27532.825745 25668.902731 23478.280041 20808.081152 16432.051966 19698.553133 6267.240359 24125.348618 25006.872124 22069.214054 23442.242532 25937.378769 28982.812474 27070.663091 25139.125460 22793.384651 20345.308465 15932.926406 17698.024975 7551.328733 18216.803054 22243.995383 22041.272998 23403.659420 26357.074309 28351.129963 26383.247811 24518.292018 22147.240193 19644.687247 15491.986312 15718.310718 8411.325427 12049.008163 19449.822234 22014.869326 23333.949081 26202.074520 27074.869053 25595.878784 23804.724950 21524.884691 18800.518557 15120.610120 13920.241908 8667.442568 7524.664058 17047.405096 21966.497873 23044.873826 25100.997368 25959.984458 24914.967575 23038.322168 20917.271838 17952.525614 14812.515335 12418.543142 8707.688975 5073.979670 15491.788931 21940.366840 22770.997796 24223.470367 25311.182210 24385.540472 22315.127824 20324.446982 17215.006935 14520.359494 11303.663009 8979.448316 4052.551285 14923.991900 21938.589624 22630.502504 23848.721888 24901.507898 23903.542523 21682.887006 19756.905521 16641.040445 14188.421422 10590.682468 9398.380348 3485.917050 14882.184237 21930.337295 22545.938617 23562.396054 24455.901837 23439.081465 21120.785388 19218.905961 16216.009211 13800.719206 10221.148751 9559.705142 3063.128567 14465.550832 21896.172251 22455.486939 23244.215025 23925.632632 22954.334456 20602.008542 18701.424903 15883.962801 13377.229255 10068.749974 9266.564388 3054.723544 12895.444883 21834.355258 22336.440861 22847.504513 23295.133089 22434.182462 20124.534355 18197.013875 15589.514117 12955.677825 9981.544635 8703.972301 3389.427071 10385.175280 21752.728398 22188.700181 22395.292836 22644.331799 21912.035596 19689.819320 17712.514536 15301.117031 12570.882111 9857.715592 8130.872673 3714.994328 7868.700216 21660.987742 22024.158943 21940.749642 22052.371388 21410.474304 19298.634013 17265.555259 15010.820381 12244.144361 9672.688087 7672.531229 3865.816215 6013.798153 21566.075059 21849.923664 21499.326245 21549.106971 20949.913397 18953.211705 16875.472785 14726.190930 11984.356328 9451.994398 7342.360802 3883.875561 4839.682948 21471.962488 21667.553392 21082.792342 21146.729510 20548.636798 18653.059992 16556.074562 14459.667540 11790.777866 9231.699812 7112.151078 3848.377470 4131.792196 21381.000443 21479.474110 20700.888680 20846.640527 20218.282052 18395.210879 16311.367744 14219.017654 11653.841758 9034.967083 6949.138698 3808.321797 3703.236012 21294.905153 21290.329951 20358.621073 20638.911040 19958.159009 18173.616649 16133.774481 14002.577106 11555.195302 8866.714140 6823.518013 3778.802003 3428.275325 21215.436451 21108.714947 20062.533371 20508.679310 19758.484819 17981.397034 16008.916366 13802.586171 11473.141170 8719.773258 6710.600734 3754.632418 3231.778296 21144.638526 20945.606694 19818.905066 20435.164047 19601.282924 17808.180021 15917.108377 13608.550760 11387.666586 8582.267884 6592.827903 3724.712208 3071.719733 21084.710316 20811.523862 19630.736931 20398.599581 19474.754075 17651.343328 15844.500092 13417.469731 11289.561495 8447.071077 6462.931709 3682.190674 2926.899559 21037.573084 20714.229185 19495.642349 20378.138237 19367.422235 17508.965358 15780.473297 13233.627436 11182.612395 8317.323689 6326.470291 3630.535061 2790.634843 21004.263082 20656.674230 19404.458686 20356.171240 19278.255978 17388.631708 15726.110770 13071.119102 11080.377438 8202.467949 6195.922337 3580.566910 2665.626503 20984.404724 20637.432848 19347.788497 20324.326075 19210.572913 17296.487335 15683.985140 12946.841388 11004.590704 8121.357208 6090.762095 3548.165618 2559.615548 20975.999242 20650.581229 19313.252260 20274.988917 19163.470541 17233.719611 15657.372637 12869.050286 10962.272718 8079.382794 6020.702643 3544.056413 2481.420726 20975.630777 20688.982063 19298.839223 20220.500595 19148.406727 17203.500070 15648.562218 12843.550336 10961.835446 8083.282532 5989.370572 3569.075309 2434.647070 20978.718125 20743.420499 19296.889832 20155.497594 19142.992581 17182.399423 15642.709844 12848.309562 10978.124340 8115.363428 5987.372839 3616.016654 2417.755523 20980.097352 20805.794809 19313.985221 20104.834496 19166.376155 17178.405996 15644.709630 12878.593161 11000.542717 8157.033217 5990.770408 3661.919790 2421.587280 20974.225057 20866.274902 19340.363242 20051.206095 19176.743936 17157.314715 15627.533957 12898.069583 11002.385631 8200.434825 5997.235075 3695.490376 2430.725320 20955.841506 20915.584907 19380.804085 20026.527989 19211.008274 17151.591174 15626.798117 12929.249640 10979.501956 8213.232395 5979.266673 3705.068586 2439.785046 20920.238386 20944.438775 19421.973167 20000.782518 19244.240943 17145.742495 15616.037528 12950.110404 10964.842314 8258.861075 5972.968029 3690.876815 2434.739458 20863.454906 20950.810027 19484.644177 20041.802232 19303.146199 17179.702636 15672.571420 13027.226199 10941.779576 8280.019202 5981.345402 3699.934514 2433.779091 20783.250872 20920.548000 19538.392581 20071.744746 19429.948389 17260.974953 15736.072991 13127.987900 11027.870787 8402.483131 6024.326538 3710.965635 2437.045796 20679.325516 20893.474631 19688.751584 20261.676933 19527.785591 17393.500396 15917.833999 13312.919238 11095.801552 8535.760628 6142.039373 3806.798832 2483.561069 20551.499327 20805.517560 19780.921084 20365.888836 19775.825280 17564.222130 16053.751691 13529.015387 11304.272311 8727.181299 6287.446865 3894.132434 2524.191248 20408.708293 20784.772245 20068.093396 20706.163190 19862.678279 17784.619920 16285.045681 13717.339005 11486.555300 8917.157235 6408.488022 4095.251240 2657.955579 20247.221859 20682.899109 20262.261311 20856.819718 20110.460274 17926.470787 16475.341620 13935.786881 11560.749534 9119.422340 6579.837696 4101.926044 2671.717742 20080.855627 20655.437603 20517.075935 21130.632668 20141.639490 18215.464461 16474.785527 14060.536657 11804.036043 9091.592457 6542.880554 4319.181566 2822.962117 19910.113204 20551.990405 20794.159800 21386.386273 20265.476455 18249.032555 16806.869583 14063.942234 11671.647308 9244.533997 6687.326296 3975.095323 2718.842382 19760.233262 20462.075020 20711.561731 21226.165114 20381.401891 18550.112913 16669.579352 14193.542808 11881.476436 9102.151049 6328.312094 4510.836802 2549.241616 19646.248275 20581.971906 21467.191792 21688.959627 20494.689830 18676.473921 16683.407551 14263.014589 11545.798987 9237.188581 6573.715740 3556.819850 2791.410767 19604.368785 20436.916641 20860.669428 21351.898835 20221.265877 18820.455872 17480.344660 14067.452240 11962.457286 9088.845725 6493.684144 4118.093092 2096.017907 19815.068943 21015.277490 21283.546285 20686.627773 21431.087013 18957.730561 16505.557227 14761.306821 11681.782983 8702.821696 6494.715079 3978.279150 2241.029009 20090.763302 22430.146682 23601.205303 22393.526597 20782.596311 18767.999056 18269.852884 14360.246016 12059.163801 9204.353058 6059.586968 3719.663479 2229.250188 20121.186583 21643.665547 22085.516607 20563.167537 20885.984173 18913.628905 16049.937883 14184.720520 11632.650386 8126.133295 6482.530524 3489.655945 1669.412511 20114.178251 21697.107247 22497.145011 21931.140792 20336.879348 18087.647660 17379.271609 13604.163054 11190.012780 8158.457946 5887.644477 3785.954993 1721.021645 19872.751184 21325.127558 22330.762432 20703.549139 19131.514888 16763.796258 15572.357470 12262.489868 11209.665784 6931.389114 5928.377452 3999.638904 1130.652285 19349.368927 20510.438628 20425.715256 19855.057859 19498.548372 16544.892642 14557.003727 11923.072338 9839.306566 7596.102859 4553.179395 3856.914721 2328.833517 18816.561041 19739.198151 18960.390050 16993.228979 16399.829798 16068.495875 12736.207181 9995.488282 10267.676117 7638.810198 5624.945572 2393.803433 1757.382368 18046.646570 19287.591157 21032.969649 16991.458651 13725.408710 11211.056205 11740.674160 9626.472539 8630.501327 6337.792420 5773.324568 3367.455504 3984.943534 16448.929354 16131.809602 15116.376137 13401.902816 15250.993509 14231.734355 11339.041612 9484.435031 9411.665725 5813.683309 3380.147895 299.904837 3290.752796 14241.504121 14451.372356 15496.206987 14404.811668 12601.271391 11546.786989 12967.769842 12260.205869 9668.842994 8007.484038 7304.721835 2233.757474 3624.908411 12192.306839 12447.972638 13540.381151 11652.759114 10041.214159 13110.007135 12073.182100 8893.342055 11859.501530 7229.720746 7291.117182 9603.131873 2105.390198 11470.029462 12262.059074 13084.334390 6502.380285 17429.401921 10376.881248 6667.265138 10613.872348 10767.061319 11320.190609 10540.298788 10968.083236 2875.631077 11514.616560 12351.214679 11745.420498 5496.599391 12559.897088 11860.451013 6568.772684 11739.582088 6219.125092 11763.793607 4340.407289 8370.019736 8153.246511
</DataArray>
<DataArray type="Float64" Name="Velocity" NumberOfComponents="3" format="ascii">