<VTKFile type="PolyData">
<PolyData>
<Piece NumberOfPoints="2177" NumberOfVerts="2177" NumberOfLines="0" NumberOfStrips="0" NumberOfPolys="0">
<PointData>
<DataArray type="Float64" Name="Pressure" format="ascii">
 21220.813534 20446.795771 19227.199905 17950.638960 16783.408437 15647.412328 14347.675822 12836.505718 11269.944248 9908.607678 8850.690484 7947.797769 7040.965215 6123.684037 5050.454024 3651.253422 2309.051363 1642.284633 1288.570486 407.937056 -501.303783 -619.227168 -382.291837 -736.304485 -1709.298306 -2538.528873 -2941.121830 -3021.264446 -2890.935840 -2623.202142 -2276.927223 -1900.233117 -1529.924287 -1191.530668 -899.686410 -659.818220 -470.670896 -326.897333 -221.207695 -145.901876 -93.817712 -58.817563 -35.952558 -21.426011 -12.448817 -7.051510 -3.894056 -2.096443 -1.100186 -0.562403 -0.279309 -0.133806 -0.061266 -0.027131 -0.012522 -0.007451 20523.051698 19806.718393 18791.178669 17778.290675 16583.082733 15360.793814 14082.641419 12539.767834 10628.438717 8952.598940 7913.954567 7074.983551 6100.482031 5440.810459 4639.656186 2687.525739 541.316832 456.791226 1493.612029 -56.944168 -1712.078570 -1104.072270 232.010604 -125.649922 -2078.441013 -2951.725618 -3177.574666 -3137.617803 -2946.333410 -2644.272146 -2284.249833 -1902.998186 -1531.391096 -1192.651257 -900.682393 -660.708376 -471.436177 -327.525979 -221.702361 -146.276100 -94.090709 -59.010005 -36.083828 -21.512736 -12.504348 -7.085986 -3.914817 -2.108565 -1.107016 -0.565987 -0.280574 -0.132781 -0.058108 -0.024732 -0.011434 -0.007006 19809.241465 19260.765916 19175.635070 19874.205642 18240.397899 15817.654250 14994.408711 14746.146071 10532.542499 7763.887199 6967.211005 6575.191230 4422.637527 4852.704415 5509.367264 1441.168634 -4087.037402 -1492.467831 3567.827289 -943.003798 -4634.745245 -1829.968227 1895.777753 864.472839 -3333.704478 -3808.936874 -3501.107060 -3306.131429 -3045.112634 -2674.167715 -2292.827050 -1905.364546 -1531.621463 -1192.105662 -899.884736 -659.887375 -470.695119 -326.905816 -221.210656 -145.902904 -93.818066 -58.817684 -35.952600 -21.426024 -12.448821 -7.051510 -3.894051 -2.096418 -1.100081 -0.561973 -0.277594 -0.126153 -0.047035 -0.018987 -0.009458 -0.006233 -0.020138 -0.010205 -0.006328 -0.008769 -0.005911 -0.004197 -0.003251 -0.002694 -0.002182 -0.001287 -0.001163 -0.001025 -0.000513 -0.000487 -0.000450 -0.000204 -0.000199 -0.000189 -0.000080 -0.000079 -0.000076 -0.000031 -0.000031 -0.000030 -0.000012 -0.000012 -0.000011 -0.000004 -0.000004 -0.000004 -0.000002 -0.000002 -0.000002 -0.000001 -0.000001 -0.000001 -0.000000 -0.000000 -0.000000 -0.000000 -0.000000 -0.000000 -0.000000 -0.000000 -0.000000 -0.000000 -0.000000 -0.000000 -0.000000 -0.000000 -0.000000 -0.000000 -0.000000 -0.000000 -0.000000 -0.000000 -0.000000 -0.000000 -0.000000 -0.000000 -0.000000 -0.000000 0.000000 0.000000 0.000000 0.000000 -0.000000 -0.000000 0.000000 -0.000000 -0.000000 -0.000000 -0.000000 -0.000000 -0.000000 -0.000000 -0.000000 -0.000000 -0.000000 -0.000000 -0.000000 -0.000000 -0.000000 -0.000000 -0.000000 -0.000000 -0.000000 -0.000000 -0.000000 -0.000000 -0.000000 -0.000000 -0.000000 -0.000000 -0.000000 -0.000000 -0.000000 -0.000000 -0.000000 -0.000000 -0.000000 -0.000000 -0.000000 -0.000000 -0.000000 -0.000000 -0.000000 -0.000000 -0.000000 -0.000000 -0.000000 -0.000000 -0.000000 -0.000000 -0.000000 -0.000000 -0.000000 -0.000000 -0.000000 -0.000000 -0.000000 -0.000000 -0.000000 -0.000000 -0.000000 -0.000000 -0.000000 -0.000000 -0.000000 -0.000000 -0.000000 -0.000000 -0.000000 -0.000000 -0.000000 -0.000000 -0.000000 -0.000000 -0.000000 -0.000000 -0.000000 -0.000000 -0.000000 -0.000000 -0.000000 -0.000000 -0.000000 -0.000000 -0.000000 -0.000000 -0.000000 -0.000000 -0.000000 -0.000000 -0.000000 -0.000000 -0.000000 -0.000000 -0.000000 -0.000000 -0.000000 -0.000000 -0.000000 -0.000000 -0.000000 -0.000000 -0.000000 -0.000000 -0.000000 -0.000000 -0.000000 -0.000000 -0.000000 -0.000000 -0.000000 -0.000000 -0.000000 -0.000000 -0.000000 -0.000000 -0.000000 -0.000000 -0.000000 -0.000000 -0.000000 -0.000000 -0.000000 -0.000000 -0.000000 -0.000000 -0.000000 -0.000000 -0.000000 -0.000000 -0.000000 -0.000000 -0.000000 -0.000000 -0.000000 -0.000000 -0.000000 -0.000000 -0.000000 -0.000000 -0.000000 -0.000000 -0.000000 -0.000000 -0.000000 -0.000000 -0.000000 -0.000000 -0.000000 -0.000000 -0.000000 -0.000000 -0.000000 -0.000000 -0.000000 -0.000000 -0.000000 -0.000000 -0.000000 -0.000000 -0.000000 -0.000000 -0.000000 -0.000000 -0.000000 -0.000000 -0.000000 -0.000000 -0.000000 -0.000000 -0.000000 -0.000000 -0.000000 -0.000000 -0.000000 -0.000000 -0.000000 -0.000000 -0.000000 -0.000000 -0.000000 -0.000000 -0.000000 -0.000000 -0.000000 -0.000000 -0.000000 -0.000000 -0.000000 -0.000000 -0.000000 -0.000000 -0.000000 -0.000000 -0.000000 -0.000000 -0.000000 -0.000000 -0.000000 -0.000000 -0.000000 -0.000000 -0.000000 -0.000000 -0.000000 -0.000000 -0.000000 -0.000000 -0.000000 -0.000000 -0.000000 -0.000000 -0.000000 -0.000000 -0.000000 -0.000000 -0.000000 -0.000000 -0.000000 -0.000000 -0.000000 -0.000000 -0.000000 -0.000000 -0.000000 -0.000000 -0.000000 -0.000000 -0.000000 -0.000000 -0.000000 -0.000000 -0.000000 -0.000000 -0.000000 -0.000000 -0.000000 -0.000000 -0.000000 12515.677002 12692.646471 10781.002695 10202.240164 7207.245209 6953.628216 -359.190033 5400.554460 115.468707 -617.080731 -1232.583896 -1878.475946 -998.809888 -2885.267996 -1904.048767 -1570.452844 -1382.167895 -1226.491711 -1068.052197 -903.517346 -739.754608 -585.185545 -446.972444 -329.793212 -235.383810 -162.838330 -109.435502 -71.599255 -45.684389 -28.461759 -17.324642 -10.304436 -5.987136 -3.396404 -1.879954 -1.014668 -0.533704 -0.273447 -0.136424 -0.066259 -0.031325 -0.014414 -0.006456 -0.002815 -0.001195 -0.000494 -0.000199 -0.000078 -0.000030 -0.000011 -0.000004 -0.000001 -0.000000 -0.000000 -0.000000 -0.000000 12499.458378 12027.665381 8323.662419 4825.135243 2742.517367 7128.208073 3595.576426 5604.230227 129.364161 -4361.303969 -3825.514237 -3749.435216 -1798.075544 -2061.040646 -1711.916012 -1508.291557 -1361.649400 -1220.137406 -1066.197989 -903.080038 -739.809449 -585.448504 -447.331059 -330.179602 -235.749870 -163.154362 -109.689155 -71.791242 -45.822937 -28.557896 -17.389176 -10.346511 -6.013837 -3.412909 -1.889890 -1.020490 -0.537021 -0.275283 -0.137410 -0.066774 -0.031585 -0.014542 -0.006517 -0.002843 -0.001207 -0.000499 -0.000201 -0.000079 -0.000030 -0.000011 -0.000004 -0.000001 -0.000000 -0.000000 -0.000000 -0.000000 12321.088851 12234.241952 11006.995356 8624.323642 6457.221892 5973.167452 4567.072418 3722.154214 884.965982 -2497.711277 -3756.153768 -3564.529541 -2449.949096 -1813.214343 -1575.424394 -1449.630387 -1341.970195 -1214.405636 -1064.663594 -902.624857 -739.541379 -585.144613 -446.969433 -329.795798 -235.385806 -162.839324 -109.435918 -71.599412 -45.684444 -28.461777 -17.324647 -10.304437 -5.987137 -3.396404 -1.879954 -1.014668 -0.533704 -0.273447 -0.136424 -0.066259 -0.031325 -0.014414 -0.006456 -0.002815 -0.001195 -0.000494 -0.000199 -0.000078 -0.000030 -0.000011 -0.000004 -0.000001 -0.000000 -0.000000 -0.000000 -0.000000 19663.506995 19246.195451 20727.183583 23211.864541 20138.433840 19097.344068 18840.747900 18870.652780 12119.749400 7134.825562 7304.914068 7082.205065 2828.090181 4301.788111 6757.052878 187.262147 -11067.597658 -4597.892642 4602.910997 -1612.825489 -6228.728280 -2189.987089 2400.057488 851.066239 -3961.132390 -4138.983804 -3601.288089 -3371.941429 19929.494799 19318.044910 20622.064993 21798.984404 19257.161005 20367.941161 21394.821724 24207.616678 22947.869267 19313.569519 23888.316789 18705.932399 15625.637078 14063.129629 11785.306306 14045.108653 13929.342165 15036.330034 13274.980904 12015.964595 10574.010495 8782.295552 7295.318386 7110.281851 4886.069902 442.344311 904.763832 1047.501657 20829.633290 19618.914468 18703.123089 27501.297604 22093.421682 26298.526785 22337.486518 23454.395578 22268.806830 19798.600055 21769.294207 25619.289905 16626.809000 13031.638776 17177.417742 11599.164300 11050.449017 9561.684382 8886.184090 8264.064620 6943.908717 5633.293186 4758.118108 4179.685443 3687.502718 4506.479818 593.851676 2114.725421 21674.284751 22405.247241 26674.497494 22710.018959 24380.943444 22891.939274 23725.167534 17691.055405 23300.470448 21321.423131 22679.776047 17212.431147 22278.406270 12911.238090 19456.693821 4799.323030 15789.246690 9654.001934 9015.762616 8342.599449 7940.859955 6327.740817 5442.039598 4741.350730 3389.492926 3194.912250 1186.471349 1331.002274 21834.512212 20812.203409 19975.873638 25099.223027 25277.688323 21989.893115 27139.785404 23498.958967 26068.263682 23803.924226 22517.737041 21251.255224 21747.423450 14973.862259 17814.606592 21557.832317 15728.907817 13224.741627 13477.828900 11779.974714 7954.609401 7406.786227 7356.586753 6237.484920 5045.066876 2980.573333 1800.137547 1731.485983 22439.401997 22392.340494 25237.507310 23553.860799 26312.842756 28546.443775 20107.100281 24210.392735 20009.820719 22738.367531 19322.201561 13761.602487 24316.158311 18681.938539 15701.790049 18047.164118 11392.054364 11724.916844 11360.526710 8840.367694 9008.419991 8245.937757 6900.565905 6305.596366 5116.174242 3011.487415 1414.417684 1856.511153 23263.623233 25230.308323 28695.216491 25127.585398 24208.892800 27100.587924 22493.675263 24273.651884 23036.985530 23514.488693 22394.512618 22786.054465 14916.692510 14551.459757 19441.980911 19492.880805 10301.975559 10772.756341 10529.259992 12992.267504 9992.761258 8045.825417 8174.747626 7406.448758 5879.535087 3919.065778 1915.974835 2083.480370 23395.522039 24754.347018 26612.970547 27208.191427 26240.238074 27191.963093 24211.304796 28129.504430 23588.628148 22133.857009 22140.709758 19074.615815 21624.438986 19781.221399 18464.027801 14667.701231 13051.433881 13585.432500 14187.860823 11717.768386 11368.041634 10826.475647 9335.006579 7871.887183 6324.755977 3356.960520 1459.088054 1933.093294 23245.086874 23301.066847 25243.930581 27316.496301 25177.226904 26293.349555 20602.714556 26235.821787 21095.150392 26919.446072 22984.495933 21619.781348 19761.343633 17218.807598 16843.376277 16342.357217 14056.995131 14732.074565 11686.238549 12756.796129 11310.238740 10719.127832 9108.075863 7496.415009 5391.902620 2874.956120 1597.158909 2391.676783 23409.313319 23255.972648 24651.177220 24366.385334 24663.143653 23895.678356 22331.184538 22997.749001 20683.344859 26136.179860 21432.190960 19103.545543 17809.812740 19854.040212 13310.280658 14574.480061 13211.498233 14652.127956 13248.699828 11673.595869 12481.667480 10538.954024 9395.418178 7259.827695 5610.230427 2210.567034 2203.970018 2667.331124 23883.119020 23379.092357 21960.089048 25878.705732 23699.364176 20681.831661 25532.343344 21085.856661 19823.165066 21399.236566 17690.185584 22232.020630 16014.289666 16266.485571 14457.389041 12569.780848 9838.603263 10787.349078 8285.337758 10072.741654 10528.528141 8842.326133 8168.636333 6797.212131 5258.086526 1999.335178 2799.343066 2869.137856 24219.245625 24682.538722 25920.001297 24039.850417 25450.572232 25944.133842 22269.391810 20934.589479 16957.327474 20972.499841 15630.677518 17062.237478 9723.776353 13423.790057 8609.960605 12024.326963 10954.352029 9200.917940 5741.858995 8641.144709 6457.250922 8751.792404 3605.390861 5481.446937 4939.350633 1856.078994 1868.107279 2747.255839 24064.653914 25123.893664 25957.151483 25781.879071 25740.102893 25108.308314 23205.086400 20624.250444 16712.568795 17279.117619 15646.702857 13996.033000 9966.408999 5602.451383 7355.195052 -3054.237321 7847.539733 6062.572883 5524.169793 11159.065711 7074.593440 5739.386462 7906.121879 5075.243514 1969.319237 1015.865284 708.208694 2685.717642 23628.993402 24003.289219 23493.940222 24377.151522 24664.501971 22062.968098 21333.881612 19963.676607 17203.897932 16398.354486 13079.176804 8078.651192 5006.675018 -317.941655 3086.735260 2033.451177 4925.907538 3603.331518 1144.744226 2252.511471 3174.433882 1487.597572 3494.968754 5981.792121 3194.683048 4657.127069 2396.320238 2908.079463 23223.860120 24669.818494 29990.902228 26353.476329 20619.251923 20203.565360 18553.924191 16087.276795 16197.002988 13973.136632 11375.219844 6644.520945 4694.472244 240.128078 -2478.666770 -313.261109 -1736.173235 1806.685204 2079.965901 3639.133391 61.685314 -405.204604 190.337232 5201.800189 5319.277371 2294.760865 1112.973132 4989.680891 22613.369588 22416.814316 24538.887926 23275.222146 21311.346224 18449.110038 17646.074032 15529.940284 13315.710138 9542.251345 5102.477691 1763.081663 1795.237734 22149.036675 21840.515517 24564.124293 19608.589722 21024.282279 22817.666325 18743.712307 15877.374256 14399.745626 9616.624679 4493.353276 2615.256838 -860.570721 22036.070435 20043.157007 21842.436150 17759.966173 18973.625600 17245.246533 13918.149810 12974.987999 12874.212057 8395.592080 2040.622965 1348.960239 1326.609606 22647.465215 21749.341695 24249.368144 18669.751471 20523.087624 18901.923522 15958.974090 13959.005779 10602.720138 10089.106593 4401.581222 950.325852 2140.274243 23255.528860 23442.294421 23812.083291 19606.271861 19563.281766 15119.258665 15056.991917 11320.328765 6842.898648 8036.913722 1368.740149 1084.886342 -822.238585 23284.699007 22943.659000 23284.113152 19909.453539 19676.181629 14878.090343 17086.706247 10570.405962 6231.151320 16.068056 727.647225 -3607.049350 -1205.535710 23244.428713 23487.355200 24889.522535 19856.606842 19428.358103 17728.465365 10375.431355 11861.527304 8242.583449 1951.626152 2224.968393 3577.926321 6554.145046 23287.686936 22445.939930 21273.627009 16496.617470 18680.686703 18595.997480 11167.344083 6813.159723 6008.300377 6878.979725 5601.338728 2242.495259 -1173.989035 23783.587099 22661.734843 23034.155620 15939.578783 19793.216693 16821.094108 14082.595146 9045.764592 10290.877676 3203.932110 -130.435741 3721.003139 1868.159508 24277.199918 23979.640604 23669.892624 17823.664449 19454.951100 16661.884949 12958.176733 8976.038421 3527.089108 2080.564489 1524.461767 2737.477137 3629.507469 24605.085770 24455.730838 23666.197622 16436.469368 16293.235473 17466.514684 12523.906740 7533.523108 7819.569917 6320.279583 3788.827311 3275.599900 -1216.275841 24700.338854 26255.281775 25462.436300 17391.875334 17817.186431 17042.348442 13841.467248 9017.480030 7398.975725 3148.213663 2032.711686 1780.896674 4224.248332 24436.716770 24787.862784 22820.164729 17206.875415 17773.597886 16328.311558 11629.323204 11593.554749 7161.604160 3772.205584 2086.885206 3148.373257 4927.406257 24267.143324 23355.274742 20013.007776 16507.893541 17315.083058 15431.359623 12590.967294 8948.507842 6697.733533 5589.463949 5885.404177 4792.671367 3843.977318 24335.775901 24126.754023 21864.818116 17523.136998 18266.864630 14344.323338 13167.919372 10685.605311 7702.743764 5046.194590 1148.796253 2820.780961 4858.421488 24045.240284 24760.749260 22867.089355 15848.370968 18568.156047 13987.785367 12908.444580 9943.717367 8278.980711 3340.164650 4053.196677 2121.040880 1836.872740 23426.999566 23654.555247 22138.008708 15421.453283 18168.301347 14265.786582 12096.292269 10497.539415 7194.515779 4682.430081 2593.830714 1993.530778 4293.818608 22677.229064 22786.603625 21401.052059 16008.146877 17574.246668 14569.541083 11672.273707 10548.151099 9148.817233 5114.548420 2711.367047 3095.200187 -1055.877950 22103.091987 20676.424505 17378.919864 15974.439980 17280.661202 14441.571189 12116.138730 10253.613887 9948.129657 4129.212938 5108.534635 4453.459739 4859.096105 21924.164909 20416.967964 17217.478380 15908.501784 17059.945661 14040.412664 12727.805545 9511.103524 10457.894598 3482.410104 5275.527811 6593.602959 3631.926313 21821.521414 20759.969109 18656.063473 16057.266899 16561.033598 13494.356095 13197.947174 9023.543470 10761.701057 5115.090610 4950.749072 6446.467441 4202.743111 21564.885840 20194.442363 17730.049038 15963.062183 16146.598632 13085.326146 13237.954329 9307.198980 10280.319990 7404.179145 4132.042433 5523.051836 3948.283276 21243.800994 19892.726389 17806.265490 15868.347022 15957.275665 12965.929764 12806.268172 9979.831675 9129.403941 9129.511472 2177.380256 7304.019308 4655.712045 20905.191495 19219.358160 16667.060773 15961.241351 15524.617687 12999.438355 12142.663033 10542.536754 8026.159665 9849.453684 88.995117 9202.340446 5457.550698 20616.585412 18663.794885 15799.825559 15559.114336 14910.822739 13040.104921 11431.324546 10758.676306 7309.993865 9657.283603 59.804938 9295.839461 5014.100655 20422.646625 18282.159283 15507.025823 14911.650170 14472.391198 12950.065054 10878.663256 10573.130806 6931.114566 8901.557553 1836.466878 7115.193297 5079.568748 20290.794538 18076.544734 15126.523159 14635.060256 14211.639484 12711.815701 10582.112289 10075.739157 6837.956118 7855.459083 3334.778081 4137.569465 5389.978794 20146.866402 17968.804540 15003.548502 14637.519289 13941.633495 12436.105552 10427.557559 9405.530357 6985.859063 6686.283382 3805.629987 2005.409493 5628.982879 19925.362607 17784.149707 14942.083677 14484.838628 13554.219477 12175.764964 10315.788177 8744.765649 7240.393508 5545.501120 3912.337710 1142.631304 6055.253041 19642.259574 17430.870777 14494.829645 14145.194761 13092.986041 11903.730238 10195.361987 8230.176160 7447.472448 4626.815790 4496.519867 1082.481858 7170.819234 19367.167620 17042.539763 13922.981203 13777.212179 12758.218296 11608.342573 10037.571774 7881.610189 7494.191261 4077.838304 5489.228452 945.119566 8713.709931 19137.679177 16765.200608 13570.652894 13518.712549 12583.645656 11312.480573 9840.227640 7649.975633 7343.304865 3917.363920 6103.310254 422.735814 9924.472017 18937.013056 16600.494732 13441.098394 13359.044921 12439.980079 11024.974037 9610.768112 7474.320713 7039.376217 4030.695731 5916.170234 237.295327 9832.837106 18731.810994 16473.535472 13428.415715 13156.974085 12259.211786 10733.727857 9356.379243 7311.855036 6658.215667 4227.278766 5179.714256 688.120159 8182.540232 18500.536208 16326.987648 13411.118338 12862.288276 12034.659530 10422.355783 9075.597787 7142.015505 6261.221376 4359.636101 4358.229230 1301.282958 5805.687402 18238.256790 16127.793935 13313.710756 12472.729441 11759.357327 10087.856746 8764.891842 6958.505238 5882.113877 4379.259617 3689.395515 1692.833963 3798.283522 17951.751171 15865.672426 13113.345216 12014.978726 11437.840602 9734.632866 8426.141407 6759.469572 5532.760571 4302.620624 3211.368868 1834.249954 2526.651614 17653.144256 15544.924416 12805.830517 11522.762753 11076.969882 9362.765644 8063.253374 6539.871076 5212.594540 4160.547325 2886.381403 1827.603488 1809.927484 17355.284712 15178.623213 12387.589064 11015.253408 10676.993343 8969.226609 7679.413720 6289.898921 4912.491701 3972.879405 2661.023197 1751.123495 1421.664013 17069.454317 14784.955489 11880.718853 10500.887356 10239.600977 8550.912316 7276.976341 5998.861078 4618.031927 3746.185951 2485.662671 1641.577556 1197.192894 16804.379297 14383.750158 11319.865038 9989.284276 9771.186250 8108.197311 6860.421219 5661.818129 4315.951659 3482.487896 2322.052240 1508.973171 1039.849768 16566.180628 13992.920589 10741.269639 9494.286398 9285.858482 7648.337568 6439.564551 5285.195061 4001.734617 3188.754556 2147.828490 1356.273665 903.554797 16358.829292 13625.823332 10174.989243 9031.028437 8804.843475 7186.006154 6030.073435 4888.111434 3683.574546 2881.384915 1958.974083 1191.254190 774.510114 16184.963752 13291.289768 9640.904771 8611.531983 8351.963776 6740.515246 5650.412620 4497.913670 3379.664750 2583.982161 1766.358887 1028.622844 656.232934 16046.607077 12996.096440 9150.413768 8242.027954 7947.388574 6330.499889 5316.371334 4141.610277 3110.076301 2319.956272 1587.294876 885.170878 557.564508 15945.355178 12745.897475 8709.284950 7922.071900 7602.854686 5968.534428 5035.725279 3837.173556 2887.651739 2104.241770 1435.916810 772.726991 484.263521 15882.213797 12546.084448 8321.717460 7646.635451 7320.140395 5658.774420 4806.243427 3589.118469 2712.758019 1938.687405 1316.848488 693.510617 435.107638 15857.313271 12401.934190 7993.003684 7408.874342 7092.492834 5397.540036 4617.446035 3389.698881 2574.158792 1813.227867 1224.596658 640.313853 402.452936 15869.640949 12317.723631 7729.278277 7202.729336 6909.254444 5177.434892 4455.822750 3225.135318 2455.402192 1712.050630 1148.055928 601.005589 375.899317 15916.879781 12295.373300 7535.337191 7024.272599 6760.978738 4992.147550 4310.809027 3083.471494 2343.168875 1621.727805 1077.365431 564.932797 346.954595 15995.355447 12333.194870 7411.771569 6871.461938 6642.437872 4839.480889 4178.737888 2960.187500 2233.429899 1537.267938 1009.230062 527.896871 312.600853 16100.050505 12425.310176 7354.136736 6745.161023 6555.595223 4723.959459 4065.172358 2860.741701 2133.505809 1463.909871 948.415891 493.410830 276.184239 16224.672549 12561.973832 7353.722651 6647.974961 6506.262084 4652.507708 3980.399446 2796.441446 2057.924213 1413.827259 905.178635 470.269431 245.673590 16361.850649 12730.960869 7401.429462 6587.016218 6505.162914 4635.363184 3938.509477 2780.603667 2021.992963 1399.219026 888.917399 466.676246 229.741246 16503.507189 12919.426217 7490.740306 6571.371518 6559.561473 4676.588966 3947.891642 2820.154016 2034.676247 1426.983380 904.062437 485.863842 233.563366 16641.463299 13115.826384 7620.072621 6612.765721 6674.639929 4777.762789 4012.683738 2913.239810 2093.218230 1492.730206 945.473083 522.731396 256.314492 16768.185716 13311.228916 7791.994110 6720.420636 6846.397311 4931.152093 4127.769190 3048.521012 2185.469754 1583.661581 1000.886082 565.193093 290.244789 16877.545508 13499.520225 8008.807589 6896.108225 7062.032764 5122.722192 4279.409990 3205.406929 2291.451630 1682.055483 1056.120800 600.076153 324.134660 16965.395196 13676.957807 8270.270674 7134.977609 7307.316478 5341.964640 4458.018306 3367.688120 2392.916595 1769.223385 1097.110028 616.329962 346.718951 17029.759412 13840.673944 8566.152185 7414.964979 7553.593357 5563.703712 4639.652568 3517.876013 2483.321634 1843.306983 1125.003610 615.429890 352.544645 17070.671536 13987.743097 8881.685180 7719.446573 7800.124396 5800.375939 4834.165852 3659.520348 2562.005327 1901.973326 1143.438343 605.873152 343.610441 17089.606684 14114.611279 9193.698007 8014.829304 8017.596096 6021.907637 5022.499261 3802.642691 2657.926192 1974.355800 1177.517327 612.151063 332.650701 17088.868731 14217.442516 9485.253531 8301.726107 8245.816130 6283.880711 5243.009237 3969.854177 2789.315898 2079.032113 1244.030094 650.443907 335.368494 17071.075273 14294.383746 9746.825929 8565.176226 8460.579066 6544.168050 5490.041289 4193.620799 2989.266144 2241.333177 1369.115196 749.978845 369.554565 17038.965408 14346.675224 9981.586327 8837.908817 8727.426688 6881.349909 5787.175810 4474.450606 3278.432850 2486.690496 1551.816438 898.070818 446.906358 16995.788226 14379.730386 10211.064228 9124.792777 9008.616333 7219.445206 6140.966797 4824.747996 3609.099286 2767.601962 1784.346623 1101.988457 561.463459 16945.691384 14406.179267 10446.053243 9439.304334 9327.558624 7603.421386 6477.337306 5187.931667 4010.737980 3110.888713 2029.198068 1296.302142 699.664169 16893.793994 14433.036591 10713.818763 9784.884588 9623.408469 7938.709681 6833.704607 5516.018926 4303.396537 3358.932468 2242.777628 1492.567325 829.254418 16847.262595 14471.815006 10961.743508 10063.297511 9844.489311 8177.057049 7046.510917 5746.299923 4571.969846 3603.014499 2369.507066 1557.001305 927.387482 16812.613215 14527.176637 11220.745566 10297.662575 10001.907907 8352.818616 7150.939011 5854.460603 4614.449279 3607.511979 2435.252515 1655.427273 936.055487 16791.078600 14581.525066 11401.767618 10407.771551 9895.139316 8361.224855 7187.967722 5776.166583 4573.204778 3634.763883 2323.232103 1454.290179 990.663909 16793.691553 14578.185889 11258.936969 10272.681863 10043.393724 8310.137899 7032.455098 5740.157880 4462.559671 3391.501800 2384.912544 1511.811276 738.098801 16826.666003 14689.347105 11544.626223 10371.030869 9762.542138 8271.728036 7069.256269 5494.379707 4394.730772 3308.983417 1871.522125 1456.213752 799.165379 16860.206758 14635.510404 11217.937354 10076.335420 9869.661305 8479.172614 6972.406369 5619.139236 4152.010047 3409.363413 2197.708984 923.110728 758.467415 16950.212742 14561.102128 10832.803635 10147.515465 10355.250676 7956.585022 7213.331444 5682.956656 4331.401922 3080.497038 2033.864225 1361.914093 498.117455 17124.458474 14860.802149 11539.584313 10365.827652 9950.903216 8929.415558 7042.358636 5877.942403 4410.844749 3176.396317 2023.155963 867.094627 564.786808 17301.983776 14931.099239 11239.814335 10323.572197 10478.209901 8044.628160 7100.171713 5876.979838 4511.505392 3317.156077 2236.982096 1185.488124 371.328400 17503.312552 15026.774584 11363.132453 10853.214396 10236.611702 8812.129473 6843.117140 5514.642783 4274.822294 2775.793542 1756.192474 987.538616 386.411095 17537.680328 16017.688821 13999.097446 9681.810843 8801.004474 8591.859035 7061.989636 4910.249650 4716.100857 3498.223239 1948.726487 972.093707 185.112535 17099.197129 15118.561746 11176.566771 9747.217930 8165.732108 7295.358866 5709.244586 4524.759969 3039.016287 2122.192955 1687.067162 466.732215 494.313494 16602.297471 14817.530296 11976.291100 10027.165196 7379.918492 5614.515280 5767.377941 4311.897731 4108.965736 2440.551924 1630.730341 -241.763404 -640.777130 15902.456141 15083.359904 13849.786397 10414.364420 6757.546273 8208.531115 4284.360987 3830.725503 2593.733879 980.791413 842.046264 1452.969911 199.848047 14425.729260 13621.444579 13645.856281 9053.267008 7919.485929 6285.051026 5092.035506 6506.039023 5233.851952 3549.801645 -3023.069487 -885.500328 -1019.200934 12821.574153 12395.118318 11607.763990 10513.192593 8416.567730 7339.309659 6167.334167 7821.791879 4678.429679 2724.388104 6454.881251 4059.975708 6191.070374 12279.269894 12041.558644 7161.516344 5401.237955 9827.866774 8776.437135 5549.692992 8035.137267 5983.750464 6155.686061 4096.354687 5416.370552 2197.160694 12515.677002 12692.646471 10781.002695 8023.854066 4632.762250 6020.368859 6245.471404 7529.681646 8063.420203 10022.669314 8104.272831 3999.168720 2826.188820
</DataArray>
<DataArray type="Float64" Name="Velocity" NumberOfComponents="3" format="ascii">