<VTKFile type="PolyData">
<PolyData>
<Piece NumberOfPoints="2177" NumberOfVerts="2177" NumberOfLines="0" NumberOfStrips="0" NumberOfPolys="0">
<PointData>
<DataArray type="Float64" Name="Pressure" format="ascii">
 11478.442779 11194.446684 10571.139234 9582.726474 8294.733116 6893.911273 5568.222549 4379.155137 3344.871608 2356.124534 1146.472587 -111.867497 -790.615603 -735.667873 -260.683336 159.197868 32.305638 -681.547906 -1339.468677 -1623.200788 -1838.471128 -2432.344291 -3372.545330 -4095.466569 -4364.007068 -4313.880612 -4112.118001 -3840.150355 -3521.230474 -3173.317436 -2821.150730 -2481.958314 -2164.019002 -1871.026608 -1604.464247 -1364.577409 -1150.822806 -962.141228 -797.142170 -654.226515 -531.665565 -427.653286 -340.345033 -267.891222 -208.469896 -160.318737 -121.765166 -91.252717 -67.363023 -48.836690 -34.606428 -23.863274 -16.127110 -11.090520 -8.271840 -7.095596 11391.434230 11073.920531 10418.677872 9417.681313 8114.789369 6790.817406 5637.226649 4472.518478 3453.323573 2669.468674 1221.920584 -804.198296 -1478.798800 -1052.029494 -157.693930 696.811567 689.882820 -898.725407 -1775.381208 -1674.234493 -1582.841118 -2895.277739 -4554.244981 -4670.140546 -4616.431325 -4436.864951 -4180.857244 -3894.417521 -3560.258515 -3190.667499 -2827.633320 -2484.366111 -2165.098981 -1871.685687 -1604.984026 -1365.040270 -1151.250697 -962.538801 -797.509648 -654.563301 -531.971172 -427.927557 -340.588212 -268.103990 -208.653356 -160.474286 -121.894071 -91.354788 -67.432423 -48.849086 -34.482305 -23.449326 -15.327827 -10.361988 -7.802960 -6.793884 11234.277038 10861.058489 10212.385658 9005.276128 7708.194514 6724.817443 6429.769018 5066.901647 3434.349416 3929.207786 1910.884178 -2848.963400 -2922.090294 -1511.064664 -3.218504 1889.554412 2205.972457 -1666.165680 -2870.258133 -1756.438728 -945.858735 -3066.946714 -6476.646062 -5877.410309 -4944.957563 -4588.300863 -4268.024465 -3988.833393 -3644.885974 -3215.493765 -2834.130828 -2486.008456 -2165.278653 -1871.418455 -1604.586230 -1364.615431 -1150.834672 -962.144934 -797.143328 -654.226875 -531.665676 -427.653315 -340.345022 -267.891152 -208.469645 -160.317875 -121.762226 -91.242696 -67.328923 -48.720572 -34.216067 -22.451554 -13.253497 -8.889269 -7.007132 -6.296114 -8.796636 -6.909987 -6.065308 -5.876611 -5.238480 -4.830511 -3.719583 -3.568606 -3.422196 -2.425503 -2.385995 -2.337432 -1.583361 -1.574427 -1.557478 -1.027532 -1.026580 -1.019926 -0.660741 -0.661575 -0.658509 -0.420429 -0.421412 -0.419774 -0.264560 -0.265332 -0.264368 -0.164595 -0.165135 -0.164539 -0.101235 -0.101594 -0.101219 -0.061553 -0.061784 -0.061548 -0.036997 -0.037144 -0.036996 -0.021983 -0.022075 -0.021983 -0.012913 -0.012969 -0.012913 -0.007499 -0.007533 -0.007499 -0.004305 -0.004325 -0.004305 -0.002443 -0.002455 -0.002443 -0.001371 -0.001378 -0.001371 -0.000760 -0.000764 -0.000760 -0.000417 -0.000419 -0.000417 -0.000226 -0.000227 -0.000226 -0.000121 -0.000122 -0.000121 -0.000064 -0.000065 -0.000064 -0.000034 -0.000034 -0.000034 -0.000017 -0.000018 -0.000017 -0.000009 -0.000009 -0.000009 -0.000005 -0.000005 -0.000005 -0.000002 -0.000002 -0.000002 -0.000001 -0.000001 -0.000001 -0.000001 -0.000001 -0.000001 -0.000000 -0.000000 -0.000000 -0.000000 -0.000000 -0.000000 -0.000000 -0.000000 -0.000000 -0.000000 -0.000000 -0.000000 -0.000000 -0.000000 -0.000000 -0.000000 -0.000000 -0.000000 -0.000000 -0.000000 -0.000000 -0.000000 -0.000000 -0.000000 -0.000000 -0.000000 -0.000000 -0.000000 -0.000000 -0.000000 -0.000000 -0.000000 -0.000000 -0.000000 -0.000000 -0.000000 -0.000000 -0.000000 -0.000000 -0.000000 -0.000000 -0.000000 -0.000000 -0.000000 -0.000000 -0.000000 -0.000000 -0.000000 -0.000000 -0.000000 -0.000000 -0.000000 -0.000000 -0.000000 -0.000000 -0.000000 -0.000000 -0.000000 -0.000000 -0.000000 -0.000000 -0.000000 -0.000000 -0.000000 -0.000000 -0.000000 -0.000000 -0.000000 -0.000000 -0.000000 -0.000000 -0.000000 -0.000000 -0.000000 -0.000000 -0.000000 -0.000000 -0.000000 -0.000000 -0.000000 -0.000000 -0.000000 -0.000000 -0.000000 -0.000000 -0.000000 -0.000000 -0.000000 -0.000000 -0.000000 -0.000000 -0.000000 -0.000000 -0.000000 -0.000000 -0.000000 -0.000000 -0.000000 -0.000000 -0.000000 -0.000000 -0.000000 -0.000000 -0.000000 -0.000000 -0.000000 -0.000000 -0.000000 -0.000000 -0.000000 -0.000000 -0.000000 -0.000000 -0.000000 -0.000000 -0.000000 -0.000000 -0.000000 -0.000000 -0.000000 -0.000000 -0.000000 -0.000000 -0.000000 -0.000000 -0.000000 -0.000000 -0.000000 -0.000000 -0.000000 -0.000000 -0.000000 -0.000000 -0.000000 -0.000000 -0.000000 -0.000000 -0.000000 -0.000000 -0.000000 -0.000000 -0.000000 -0.000000 -0.000000 -0.000000 -0.000000 -0.000000 -0.000000 -0.000000 -0.000000 -0.000000 -0.000000 -0.000000 -0.000000 -0.000000 -0.000000 -0.000001 -0.000001 -0.000001 -0.000002 -0.000002 -0.000002 -0.000003 -0.000003 -0.000003 -0.000006 -0.000006 -0.000006 -0.000012 -0.000012 -0.000012 -0.000022 -0.000022 -0.000022 -0.000042 -0.000042 -0.000042 -0.000079 -0.000079 -0.000079 -0.000146 -0.000147 -0.000146 -0.000268 -0.000269 -0.000267 -0.000486 -0.000487 -0.000483 -0.000874 -0.000873 -0.000863 -0.001558 -0.001546 -0.001519 -0.002766 -0.002706 -0.002624 -0.004926 -0.004677 -0.004415 -0.008967 -0.007946 -0.007127 -0.016920 -0.012680 -0.010551 -0.023383 -0.015642 -0.012292 10579.020380 9775.810150 9014.577739 8508.099786 9945.149496 9054.257249 8077.537761 9959.408581 6065.799070 3523.328855 6722.704370 6269.713720 4681.065242 5527.179988 3318.966351 884.282944 103.365989 -245.618013 -415.487948 -499.955319 -535.393743 -537.817670 -516.853685 -480.121894 -433.958990 -383.345290 -331.940391 -282.287066 -236.058972 -194.272134 -157.443986 -125.713426 -98.938151 -76.778535 -58.770563 -44.387034 -33.085854 -24.345228 -17.686786 -12.688514 -8.989800 -6.290820 -4.348250 -2.968901 -2.002455 -1.334144 -0.877885 -0.570185 -0.364915 -0.228946 -0.138503 -0.074887 -0.033841 -0.019453 -0.013891 -0.011682 10802.438110 9926.062060 7851.071395 7451.715855 9056.048107 10019.506955 10056.519801 9232.628349 6069.037494 2967.147214 4204.505329 5088.224474 3720.477684 2716.398478 1645.935838 661.911198 58.299585 -254.005715 -416.607812 -499.682903 -534.954615 -537.455061 -516.604687 -479.975812 -433.893541 -383.338216 -331.973395 -282.346223 -236.133836 -194.354771 -157.528350 -125.795019 -99.013833 -76.846357 -58.829572 -44.437059 -33.127286 -24.378825 -17.713500 -12.709370 -9.005803 -6.302896 -4.357219 -2.975459 -2.007178 -1.337496 -0.880232 -0.571817 -0.366081 -0.229949 -0.139990 -0.079912 -0.041389 -0.023050 -0.015210 -0.012286 11258.359234 10836.122423 10061.485024 9707.428578 10163.472949 10529.632615 9954.100904 8440.620737 6313.889545 4567.055684 4247.192712 3908.262815 3032.606049 2067.382401 1196.226952 488.742533 12.799382 -265.991576 -419.921894 -500.832409 -535.544858 -537.840036 -516.857138 -480.122945 -433.959529 -383.345557 -331.940505 -282.287109 -236.058987 -194.272138 -157.443988 -125.713427 -98.938151 -76.778535 -58.770563 -44.387034 -33.085854 -24.345228 -17.686786 -12.688514 -8.989800 -6.290820 -4.348250 -2.968901 -2.002456 -1.334147 -0.877897 -0.570228 -0.365068 -0.229495 -0.140431 -0.082425 -0.046125 -0.026030 -0.016385 -0.012740 11130.383402 10793.911208 10112.267637 8669.530735 7283.133474 6661.609083 6839.389509 5014.120411 2710.786491 4774.954176 2549.440307 -4207.243201 -3786.444390 -1665.241153 43.020091 2333.195669 2665.519585 -2054.160425 -3337.907400 -1794.269879 -224.633365 -1107.720753 -5234.567915 -5877.924136 -5044.711240 -4631.193246 -4294.361898 -4033.661602 10949.127227 10688.858945 10428.289586 9591.406776 10762.114050 9935.912178 7942.532512 8183.829707 8614.258778 10316.572012 11327.151550 6921.649755 6355.459319 10265.310149 7029.041331 9665.288203 10087.162922 9850.533236 6657.585162 6891.510505 5940.966226 7077.992774 7523.562032 7935.836122 8286.797464 5208.747549 242.062137 -9151.785759 10928.331279 11009.154363 10982.487881 10245.529499 7096.844937 9496.658646 9473.763881 9557.168265 11262.749595 9216.921792 9020.701956 10322.268622 4308.739108 9345.693936 6358.282792 8690.490177 6554.301290 8669.922891 11364.438536 5135.681921 3356.038961 6315.040065 5290.157667 3629.273410 2416.594072 2657.765335 2882.064671 -297.331648 10862.592092 11149.565443 11410.874809 11443.293692 9749.138298 9495.509035 7055.102719 6354.021296 11696.500091 6084.177063 7505.229047 15299.074165 2440.933100 3613.283972 5979.986952 1704.919675 2886.959864 1534.770057 4290.520581 7862.168657 1545.715777 4586.717911 6338.019382 2239.471068 2750.736644 3611.315557 3319.241304 2319.225813 10613.788969 10788.202647 11752.616294 15783.371785 13399.592790 13247.956271 13085.866356 16058.817871 13980.314297 14076.291630 10150.029222 9586.550239 9318.460357 5069.494552 12249.503174 9305.077676 6290.299191 11020.308642 6579.510542 5309.905896 2006.333806 5511.834406 2106.106028 237.129939 3043.765869 3448.361002 1105.572257 438.374693 10729.132709 10601.768626 9846.303293 13761.797039 15694.616655 12284.703420 13559.359304 13574.200233 15003.653288 11276.210169 4910.180778 4382.187487 8099.294766 9295.139353 9148.660796 8641.493506 9111.933196 3004.531789 3554.344258 5033.887007 7462.644896 4939.954051 6295.439458 3759.460945 5315.561160 2333.924782 1262.490499 1882.653230 11339.533509 10845.219521 10796.402527 15652.767786 14251.738117 11990.794799 10763.200019 12600.894718 12863.084524 12107.217081 11781.148804 14711.367643 11787.660873 7091.072864 8991.218890 7137.043281 10609.119376 8755.250562 9887.256604 4126.871141 989.108257 7227.728592 3800.998975 6500.836092 3472.970498 1551.828796 1084.351939 2010.704450 11981.700629 11161.512917 10593.012003 12736.499786 17456.975784 16013.469327 15594.566515 10302.782932 12891.513081 12048.472649 13434.383791 10211.995774 8187.970632 14955.216874 12526.809836 10247.648745 6212.937482 6729.932285 8265.914443 9340.512710 5551.284711 8110.615172 1295.038664 4749.720006 2733.355240 2394.620327 1504.356081 2336.864709 12599.542280 11942.211695 10532.830883 16353.586255 14498.862746 15244.908385 15019.442849 17329.398918 14487.497853 17004.391304 11912.511272 15482.219732 9805.781847 9806.313997 8671.562390 8085.914737 8534.746425 8552.226122 3604.945432 5923.285505 8051.323672 6438.662395 3982.830941 4326.246156 5235.349554 3983.493800 4387.588037 2151.813580 13125.936611 13082.438536 12546.966118 16765.067574 17505.823165 18149.079129 15942.578977 16261.336697 13914.367141 13873.341476 10508.596233 12677.963416 9846.578929 11255.092911 5462.916918 5018.402295 4134.668826 9787.080519 5773.748263 8388.936983 6760.977360 3076.810078 5426.414699 2650.079205 5217.867052 -1215.185683 5201.214508 1637.322715 13438.229073 13203.703793 12793.104064 17144.424619 17070.411751 16294.640901 14068.277250 12875.642607 13418.111580 16137.435603 12042.205291 12179.063581 6258.277463 4546.133940 7711.999825 10039.959522 4622.744964 7629.629492 3709.041527 5615.093350 7693.810756 4289.274111 4955.964200 5512.830411 1527.397100 4764.657384 2865.945835 -1906.538622 13822.518177 13300.548908 12399.745738 18543.306241 15502.563294 16075.604476 14282.444383 16180.208598 8948.103147 13072.192930 6088.166294 13537.892643 7679.605289 13394.463748 7156.942662 7756.397953 9503.416523 -366.547566 1503.478797 4001.884614 3909.806822 7452.416937 3155.139834 5178.188931 4440.732570 4166.483330 -1207.508398 -143.678435 14373.468722 13959.016482 14865.134430 17413.334627 16576.702284 13805.872817 14144.984548 13299.178397 7958.105670 13891.605319 8104.529157 11212.789515 11850.085437 1735.340440 4036.986007 392.967369 5254.378033 2089.137699 4846.212763 11187.840468 5661.394958 7532.581870 8577.153631 3974.719141 1882.451287 3887.669564 2340.776470 3621.853770 14909.053556 14295.231013 14349.920620 15921.697640 15645.939792 15988.432163 14639.687467 14149.188430 11948.625131 13119.038937 8498.980517 2194.862277 1241.335847 374.080731 1504.487430 5416.286379 2568.727262 1156.606429 2557.331838 1207.943577 2942.850250 1271.669848 1996.695345 6039.081425 1424.425801 3310.740392 2723.577946 4966.266138 15364.169724 14009.804586 11963.928719 18019.791781 14040.864568 15251.059731 15520.902168 13992.996982 10601.832445 12302.778036 4885.467889 4402.038997 1109.197505 520.644968 2204.127163 2535.109481 1671.399175 1878.001923 1619.462783 2013.161656 633.266083 1860.718864 777.428892 1524.364231 4458.291849 1930.065184 739.798266 1179.336317 15738.811902 14274.101521 12658.536707 17095.531848 16290.642300 15627.524294 14785.182409 12158.039698 12649.380696 6822.169219 4174.569300 1265.696213 1557.095538 16188.650621 15183.719878 13684.381607 17283.986516 16821.124946 17577.134448 14770.298047 12804.998464 13864.203785 11089.652702 1841.467791 1235.266112 1819.103265 16833.406705 17594.963225 17589.194850 16537.194798 15835.617633 13634.160405 10213.425206 14125.461329 5876.082971 2472.037102 4529.158930 3055.743785 6894.623146 17166.251909 17497.075402 16450.870410 16496.905636 17997.041690 13847.655345 14574.478761 8324.109934 5801.090039 3985.840168 2086.357978 217.700821 3446.483144 17292.959698 16563.846463 15543.587100 17558.287995 15645.967674 13364.093843 14282.727262 8430.617921 4373.591847 3055.727261 2584.857611 -4998.845546 1462.418277 17587.193021 17027.166382 16843.702968 15250.327902 15483.582230 15709.711674 10854.455651 7699.044442 4797.981547 1627.192055 4525.166262 1072.594106 1872.856761 17896.013437 17647.592356 18233.501316 19709.380894 17397.719083 17556.249704 10945.662220 9590.667384 6256.491561 6209.028513 5588.138471 3391.173157 95.486435 18082.720702 17327.106294 16628.748590 16678.400876 16320.233381 10046.743560 8566.335477 9018.010271 3857.435837 5181.613163 472.914505 2148.456435 1538.165111 18444.645224 17692.396153 17131.281669 16480.455550 15629.985828 11665.305866 13313.144045 9345.678351 9823.804337 4749.188601 1560.330985 4008.685599 1327.642360 18940.580319 18417.707545 17874.304814 17453.903173 15148.298194 12257.124536 15352.954210 9642.310168 8557.466049 5149.242360 5014.335057 6588.421170 7018.016736 19232.032616 18700.060743 18592.213332 17648.949675 15332.222689 14362.307133 13420.872943 7970.712281 7451.528080 7221.143100 4694.122056 7021.442851 21869.877016 19231.997345 17839.530536 16695.179374 16662.048379 16893.326317 12933.276148 12786.905833 9634.369948 10223.787652 6712.787586 7973.650993 347.358951 3630.971940 19282.161268 17722.487723 15989.747842 19350.600721 16128.952926 17953.373882 12792.494903 13473.547784 3736.403899 4993.552658 4023.504190 4701.298980 1517.732354 19583.946959 18532.252458 17451.724930 18434.840163 14038.783911 13206.900284 16208.090302 10626.103195 7353.501925 12034.203733 5734.418340 6874.177488 4997.588358 19998.043713 19717.362578 19416.219027 19330.424684 16365.665417 15735.554968 11780.391997 13982.150524 10348.204075 9545.355562 3358.403740 5316.396752 6680.172427 20157.703051 19956.252885 19412.773804 18460.364380 17910.535213 16861.929430 14278.847599 16737.720324 12874.705989 8013.567952 5339.466754 -390.975167 1169.346873 20007.922939 18537.092302 17112.224207 14423.816838 17514.339101 16911.804662 15369.538382 11701.986832 8355.680802 8898.119535 2935.757143 2048.414098 1441.696510 19913.361232 18070.823799 15857.943236 18731.366656 17212.466351 15504.126143 14065.800679 11077.440512 13556.000531 12703.658957 5375.388787 1079.172614 -6152.566980 19979.308933 18882.142712 18004.991877 17385.487855 17921.899251 18700.096153 13117.920454 11349.904492 10315.540383 6340.471510 6494.058142 6384.010381 4264.719531 20118.038865 18963.140965 17242.766418 19406.126916 20699.813470 17353.615635 16984.442298 13878.039873 11700.318135 7189.333896 8294.605135 8079.584259 2885.491378 20412.711128 19809.403162 18641.386930 19044.283391 19334.915540 17800.162159 15351.964894 8639.165374 13513.446899 9374.576884 5105.206570 3737.356932 5702.063766 20563.636009 19513.966655 17978.962139 18861.400352 19615.597712 18215.417305 14343.358102 15372.666382 11450.094495 9032.659527 8127.925508 5287.554075 6738.765021 20589.730773 18770.034560 16438.708347 20509.523021 20874.981318 15701.931475 17238.609843 15920.890660 12591.541591 9471.329641 7265.280104 3553.749746 19272.616732 20859.254713 19261.346779 17502.233139 20463.369862 19459.770754 17655.723200 17980.945609 12446.513132 9848.319255 9164.589241 6698.085076 5435.624057 1637.672743 21297.650317 20797.954151 19785.653238 18944.970248 18069.663852 17624.247381 12103.135571 14899.775616 11375.837085 9112.554295 7463.546209 4911.122755 147.822026 21429.308740 21495.424874 21637.945348 19556.795769 20799.363173 14186.948365 15537.874836 11706.794364 15293.619550 8405.196589 7421.909513 8195.915518 864.115635 21344.678077 20741.261150 18787.006559 20054.785521 20614.686259 19864.514545 16005.624124 17164.559743 10929.755516 11511.328452 3675.731384 2094.763137 6277.639189 21482.097994 20773.917086 19699.376221 18303.979472 20512.629807 17960.557903 14902.637170 13286.792470 10607.146391 7517.321921 4051.944500 4217.931678 2627.131346 21734.050869 20700.624612 19783.924992 20851.098629 20398.691160 16096.169852 16729.289574 13385.003912 12835.745484 7399.365484 2897.494627 3750.606247 2494.677722 22002.932582 20562.604481 18723.707996 21934.300428 19967.043924 18978.780703 20811.644838 15473.973722 12806.748270 9633.087446 7988.883830 1869.671887 4665.013483 22397.386587 21129.089518 19041.329432 21190.712096 21959.563105 20260.143427 18829.783795 18338.278033 13022.165533 7166.991058 8805.806759 4562.612930 5399.775219 22904.159322 22152.334044 20770.326412 20996.846966 18567.544011 18786.582933 19064.796289 17502.652900 10990.786320 3699.088906 6857.067126 5951.416421 6640.600422 23288.957910 22895.802079 21051.718277 23262.998155 20197.736152 21792.481610 14756.061252 12427.159559 13326.595864 3850.989027 3659.928208 5833.926142 5087.280519 23435.846010 22690.722313 20510.913684 23316.227411 19514.976071 20141.290379 13947.528190 16174.425678 11288.232418 8690.660840 8783.405984 4081.423128 6447.548477 23406.892435 23535.683304 22417.921124 20850.882665 22346.469657 17687.077399 18853.759360 16466.881686 11932.901710 10433.332563 6103.845781 1576.206832 5120.028186 23048.570628 22740.547165 20948.553696 22898.123786 21132.785847 19574.562025 19671.672014 16570.243911 12026.826680 8681.702352 5263.783268 2700.859177 6528.258148 22677.614129 21946.856680 20952.759428 21520.923038 22552.696668 18707.722863 17532.338299 14988.884596 8812.060878 7217.792341 6374.234963 5048.536121 2868.427021 22606.703441 21621.650091 19848.699744 22268.242151 23505.750425 21033.285984 18527.103434 14626.317913 7436.836906 7229.530189 3936.771111 5941.756812 8956.085425 22797.684439 22977.175558 22343.477037 23699.279512 24728.016732 21679.163531 15793.150621 9514.868334 10787.351719 7591.821945 5593.459595 2712.380217 -783.289956 22774.946418 20880.486200 18378.847847 22930.694801 21619.299198 20310.967036 17807.715444 11982.483402 11279.785865 8864.326085 6439.037412 7093.129148 3434.028130 22857.614875 20863.593315 18337.270815 21108.372309 19889.435926 19205.369131 18083.657448 12558.933609 12018.559453 9681.136822 5226.156524 7010.340084 3599.910106 23106.707566 21943.609996 20372.620932 25855.856231 24929.723293 21242.222104 18292.437385 14635.171371 14241.479523 10650.002754 7925.260045 5504.275270 -4365.134897 23504.122966 22926.689361 21868.130777 21653.095107 23396.551226 20316.671288 19038.824039 13781.218927 12545.451649 8021.643771 8367.282452 5502.072337 -8398.695065 23946.304706 23060.737673 23038.956918 22145.016526 20881.675371 22372.487734 18878.867165 15862.359434 11018.514358 8409.332717 6373.593503 -1810.324995 -4346.209708 24393.070190 24046.009494 24071.304472 22378.301788 21689.353263 18624.975757 16980.240391 16336.059981 8368.073366 6799.046009 5735.627390 3615.982784 6455.909480 24721.437856 24015.013839 23334.664703 22374.063292 21722.302610 18706.605247 16050.744528 14988.732841 12887.799703 9196.774452 6150.654422 3405.146379 5412.172627 24994.066792 25059.295547 24281.542139 20754.586031 21604.009636 17908.720618 19267.200891 14265.640608 13727.417745 10551.422231 6167.772957 3063.518881 -126.467663 25132.136901 25564.805041 23779.844663 20669.200507 21547.518573 19499.370036 19270.144865 15198.326234 12385.819158 9710.202277 6523.949869 -7530.487367 12764.460854 25091.100850 25462.345173 25677.473632 23209.021395 21871.816625 19139.568904 18677.754871 14184.035947 12945.702676 8590.172936 5627.027928 7342.881141 6834.587843 24956.297719 23880.657666 22491.206071 20330.962893 21830.670645 20160.627393 18511.483994 15104.039013 14780.331700 9534.042873 8545.868279 6194.209396 6781.415532 25174.225070 23583.828977 20427.150818 22079.350593 22595.890038 20791.330271 17356.782355 15302.837545 14658.256645 9517.678684 8550.038196 9561.203566 -5752.431679 25410.866865 24787.066442 22319.642590 23508.299853 20517.565969 21628.439997 18136.407580 15517.078275 13156.268647 9371.733780 8305.381839 5913.350519 -6550.491685 25345.166406 23984.396622 21000.303479 23689.004737 20223.287193 23116.969918 18510.930732 16096.496801 12794.757074 10019.694916 7918.023223 5903.298484 6469.243521 25267.560053 23397.302324 19921.880885 21642.667228 20088.874773 21860.054540 19323.448968 15479.477510 13194.560239 8546.805417 6935.246030 2241.928912 2113.321020 25439.406556 23107.523789 19289.514790 22539.186358 21297.641376 20276.654133 19854.102212 15028.412296 13954.901254 8329.059277 8216.405126 3969.104114 -3094.934577 25824.801257 23980.928342 20705.275739 22925.000539 21720.470093 19356.819125 20187.299733 15770.585800 12814.238040 8338.802108 7975.381032 6660.269945 -2415.524514 25729.619009 24812.067330 21445.153029 23483.265405 21847.080016 20310.763597 19016.067403 16043.995783 13674.098853 8831.819815 9561.500785 9430.411854 21120.284432 25032.987725 23374.231426 20573.313433 22598.448316 20414.320018 21091.304704 19283.996324 16837.645070 13785.742561 9238.109188 5961.957833 6303.410128 10525.204070 24740.285674 22928.576713 21675.744573 22567.794736 22858.591456 20932.687494 18605.605178 14880.470798 14923.158437 8209.060975 7192.231706 5775.515914 4751.814090 24869.759725 24521.633460 24378.623228 22543.717256 21535.923170 20416.569188 19782.046771 15283.717532 14568.653934 9308.062649 8786.764157 4973.836715 4429.751094 24720.519565 24286.099872 23950.383037 24334.994345 22557.503610 19655.702474 19356.781013 13534.469414 14563.399496 8138.744746 9295.999234 6038.905948 31298.442302 24620.489867 22292.013787 19245.883165 23415.746338 21866.296969 19953.996777 18808.167130 13882.207025 13357.627097 8624.427021 8498.157739 3401.134983 1086.108058 24791.119435 24503.521413 22012.712819 23103.831817 21228.179091 17019.397271 19118.161147 14711.909512 13868.083282 9145.500080 10466.797615 6461.002898 12901.755508 24616.637369 24448.555485 23331.990297 22364.196416 22109.667890 18078.712334 17662.652139 15358.414331 12218.826001 9810.443215 8800.531257 7879.998562 8122.489799 24486.664004 24019.158179 23525.518313 21316.786234 22598.644433 18658.010801 18197.714151 14727.337294 12110.652439 9874.854284 8372.629790 8091.117863 7012.119023 24635.587398 24483.615027 24361.388859 20883.732078 21840.574795 18693.284506 16981.471258 14842.056381 10979.148119 9954.817538 6762.065152 5351.430887 4942.065448 24686.214377 24908.534178 23671.946738 21497.004353 22207.077663 19503.362642 15800.939615 14660.055730 11615.293031 9565.009120 6856.653633 7009.368590 5220.452969 24400.311321 25269.602323 24652.677770 19415.589908 20142.183135 19418.658080 16167.837961 14762.356664 12878.367659 8913.213094 9236.862941 7237.321820 1047.035921 23901.857426 24457.866553 23888.774412 20236.553471 20134.465547 19504.138811 16097.522171 15869.734823 13338.160794 8665.567073 7827.625212 5168.906278 2132.703423 23551.036658 23860.735661 22302.658656 21041.861275 20591.439987 18563.996269 17106.254432 14782.791978 11611.509076 12412.804634 6576.053439 6292.127153 6967.755990 23275.599204 22370.507121 20392.520507 20498.931420 19360.841760 20042.440548 16539.228724 15009.683448 13211.718540 7998.711369 7978.727111 6040.236397 1136.988149 23056.384774 21472.928694 19878.650014 21373.723564 21922.876917 17906.966009 16025.557841 14336.525773 14333.573688 9094.636179 9339.594103 5393.730351 4080.131225 22792.789461 21549.227260 20388.458966 21779.360366 18361.782359 17826.225695 16697.963477 13252.059806 13108.816562 7987.417502 6444.314830 5006.494572 4612.166132 22436.618458 21093.085689 20140.294846 18083.433064 19271.943975 19057.771932 14822.447490 12426.976283 10957.567086 8481.591508 5031.821676 6816.874653 1143.008952 22235.317700 21631.334020 21198.307191 20446.934133 16332.696160 13616.161923 13703.763488 13643.939687 9715.674354 7996.452378 4284.524054 4455.775583 5937.422389 21941.458384 22590.293772 21557.249451 17247.856707 15978.502799 14713.063269 10826.435119 10803.592629 8542.628882 5471.044482 6887.651366 3897.097405 5300.695887 20959.151821 22307.702694 22636.785288 18448.153628 14853.227711 15642.156304 11997.517364 9488.110124 8599.468940 6431.565590 3167.342873 3154.529637 6660.651071 19089.929766 20639.400825 22141.321749 19014.330347 16742.907232 14153.199312 10553.083394 11401.762529 7043.721476 5675.264191 5294.965826 3284.231193 6915.299476 16740.313526 17299.451741 17245.756462 17298.458309 15497.729847 13048.238306 9981.830042 6029.184991 8809.299764 5521.569713 5132.398177 1672.378532 6635.801995 14686.556166 13570.046776 12336.663970 15461.057273 9777.033490 12310.020829 11724.588705 7148.010885 6757.342236 5387.187503 8511.671612 4894.222502 8185.944589 13299.657109 9856.906592 6428.223642 13490.227817 12401.361237 8641.438213 9418.767811 9484.793470 11293.911155 9495.881205 4317.954931 4259.298479 5238.448198 12595.533509 10973.277551 9214.750718 11806.000511 12089.778527 11651.784776 14957.727968 9874.195380 8303.565147 8127.695868 9482.347029 3613.925346 1674.144339 11897.283405 11825.393352 11377.416632 13508.036594 11479.585017 10394.850927 13308.427650 11707.570224 11833.328485 10742.855028 9966.748723 7006.192262 4618.317225 10977.972514 10339.755838 9171.677374 12737.730112 12830.630803 12046.154491 13876.568963 12250.373606 7902.745377 12912.763384 9013.117136 8658.710476 5002.379660 10645.646151 11503.642960 14357.444895 13060.993025 11864.252505 10073.254951 8940.448183 8407.733307 11433.646600 13526.379830 12310.818214 10744.610073 8212.645314 10579.020380 9775.810150 9014.577739 14274.237635 14169.242260 11933.297967 12688.507968 13062.479835 15276.520140 10090.341777 9780.884399 11455.185683 12864.255553
</DataArray>
<DataArray type="Float64" Name="Velocity" NumberOfComponents="3" format="ascii">