<VTKFile type="PolyData">
<PolyData>
<Piece NumberOfPoints="2177" NumberOfVerts="2177" NumberOfLines="0" NumberOfStrips="0" NumberOfPolys="0">
<PointData>
<DataArray type="Float64" Name="Pressure" format="ascii">
 14148.135732 13954.719459 13564.102342 12989.819086 12251.805184 11384.158938 10374.757252 9182.876295 7814.609910 6298.244507 4699.106652 3156.548588 1807.011648 726.209781 -90.200043 -691.996307 -1126.317983 -1426.518051 -1620.098770 -1732.341634 -1785.612641 -1798.498481 -1785.710460 -1758.458958 -1724.973567 -1690.979682 -1660.028477 -1633.727320 -1612.409535 -1596.362867 -1585.753777 -1579.726179 -1576.510874 -1573.910915 -1569.654156 -1561.628167 -1548.038467 -1527.508363 -1499.128504 -1462.463267 -1417.522231 -1364.705852 -1304.734589 -1238.569962 -1167.334954 -1092.239977 -1014.520138 -935.391642 -856.045247 -777.728212 -702.062104 -631.818845 -571.865703 -527.647604 -500.840273 -489.324829 14087.032006 13869.862169 13450.141547 12870.047460 12146.936636 11396.196593 10516.900290 9341.961544 7960.826939 6407.854544 4690.066232 3041.868889 1639.297526 578.812383 -173.285308 -726.355512 -1137.776722 -1429.048429 -1619.640316 -1731.139647 -1784.470488 -1797.673531 -1785.254142 -1758.361980 -1725.250406 -1691.750144 -1661.574611 -1636.216722 -1614.560711 -1597.375727 -1586.155437 -1579.876414 -1576.552925 -1573.892992 -1569.594494 -1561.536899 -1547.924061 -1527.379078 -1498.992368 -1462.327712 -1417.393719 -1364.589614 -1304.634453 -1238.488207 -1167.271946 -1092.192832 -1014.478088 -935.320639 -855.838432 -777.055225 -699.947346 -626.304194 -561.196681 -516.103507 -491.324633 -481.651206 14011.677980 13758.485916 13237.320438 12768.304684 11914.394648 11559.263846 11129.648725 9658.846522 8174.261626 6664.253055 4549.331126 2792.158236 1255.104675 305.882825 -291.010861 -770.730395 -1152.477188 -1432.755399 -1619.641162 -1730.123714 -1783.402197 -1796.875738 -1784.808676 -1758.278381 -1725.568875 -1692.670496 -1663.760826 -1641.080993 -1619.226804 -1598.618212 -1586.434443 -1579.933945 -1576.574057 -1573.930101 -1569.659972 -1561.629927 -1548.038998 -1527.508522 -1499.128548 -1462.463271 -1417.522200 -1364.705739 -1304.734216 -1238.568743 -1167.330983 -1092.227038 -1014.477988 -935.254330 -855.598044 -776.269950 -697.348971 -615.681807 -536.497353 -493.872528 -474.949131 -468.795385 -487.245801 -467.428479 -459.458279 -437.063743 -429.881104 -425.925364 -385.405565 -383.677484 -382.093636 -341.400095 -340.930198 -340.374708 -301.970794 -301.870308 -301.655316 -266.408209 -266.415546 -266.311071 -234.350461 -234.388176 -234.320560 -205.538341 -205.582788 -205.529138 -179.736895 -179.780817 -179.734062 -156.717004 -156.758210 -156.716132 -136.253142 -136.291037 -136.252874 -118.125250 -118.159759 -118.125168 -102.121176 -102.152402 -102.121151 -88.038716 -88.066831 -88.038708 -75.687074 -75.712278 -75.687072 -64.887781 -64.910284 -64.887780 -55.475157 -55.495172 -55.475157 -47.296429 -47.314165 -47.296429 -40.211566 -40.227225 -40.211566 -34.092919 -34.106696 -34.092919 -28.824718 -28.836798 -28.824718 -24.302462 -24.313018 -24.302462 -20.432248 -20.441441 -20.432248 -17.130059 -17.138038 -17.130059 -14.321037 -14.327939 -14.321037 -11.938755 -11.944705 -11.938755 -9.924499 -9.929612 -9.924499 -8.226581 -8.230960 -8.226581 -6.799666 -6.803404 -6.799666 -5.604147 -5.607327 -5.604147 -4.605552 -4.608248 -4.605552 -3.773988 -3.776266 -3.773988 -3.083630 -3.085550 -3.083630 -2.512253 -2.513864 -2.512253 -2.040794 -2.042143 -2.040794 -1.652969 -1.654093 -1.652969 -1.334912 -1.335847 -1.334912 -1.074862 -1.075636 -1.074862 -0.862877 -0.863516 -0.862877 -0.690583 -0.691108 -0.690583 -0.550948 -0.551379 -0.550948 -0.438089 -0.438441 -0.438089 -0.347098 -0.347384 -0.347098 -0.273891 -0.274123 -0.273891 -0.215079 -0.215265 -0.215079 -0.167852 -0.168000 -0.167852 -0.129886 -0.130004 -0.129886 -0.099257 -0.099349 -0.099257 -0.074371 -0.074442 -0.074371 -0.053902 -0.053955 -0.053902 -0.036743 -0.036781 -0.036743 -0.021967 -0.021992 -0.021967 -0.008789 -0.008804 -0.008789 0.003453 0.003447 0.003453 0.015317 0.015319 0.015317 0.027265 0.027273 0.027265 0.039657 0.039669 0.039657 0.052736 0.052750 0.052736 0.066605 0.066618 0.066605 0.081176 0.081183 0.081176 0.096107 0.096104 0.096107 0.110716 0.110695 0.110716 0.123861 0.123812 0.123861 0.133788 0.133699 0.133788 0.137938 0.137792 0.137938 0.132710 0.132485 0.132710 0.113161 0.112830 0.113161 0.072652 0.072180 0.072652 0.002417 0.001763 0.002417 -0.108941 -0.109830 -0.108941 -0.276046 -0.277233 -0.276046 -0.517426 -0.518987 -0.517426 -0.856298 -0.858321 -0.856298 -1.321435 -1.324027 -1.321435 -1.948143 -1.951428 -1.948143 -2.779320 -2.783439 -2.779320 -3.866598 -3.871712 -3.866598 -5.271552 -5.277842 -5.271552 -7.066951 -7.074622 -7.066951 -9.338034 -9.347308 -9.338034 -12.183752 -12.194872 -12.183752 -15.717962 -15.731189 -15.717962 -20.070501 -20.086111 -20.070501 -25.388084 -25.406364 -25.388084 -31.834968 -31.856212 -31.834968 -39.593302 -39.617803 -39.593301 -48.863083 -48.891127 -48.863079 -59.861645 -59.893499 -59.861631 -72.822595 -72.858492 -72.822549 -87.994123 -88.034234 -87.993976 -105.636634 -105.681001 -105.636156 -126.019688 -126.068029 -126.018131 -149.418396 -149.469514 -149.413337 -176.109872 -176.159741 -176.093428 -206.371770 -206.407326 -206.318321 -240.489660 -240.468371 -240.315957 -278.796228 -278.576862 -278.231711 -321.814505 -320.915090 -319.981473 -370.972616 -367.501263 -364.991169 -427.805380 -414.832600 -408.944411 -458.954652 -437.618391 -428.116901 12566.714327 12575.814274 12542.255781 12979.322719 12995.921237 13368.395435 12931.746464 12001.044297 13548.758925 12682.227299 10829.563387 11365.056979 9582.896352 9010.331304 9169.433527 7484.365023 5914.594241 3582.986937 2162.127690 1177.898705 443.416459 -120.855903 -559.544130 -902.393731 -1171.399390 -1383.345108 -1550.814610 -1682.892382 -1785.897167 -1864.126667 -1920.517468 -1957.161496 -1975.671311 -1977.417433 -1963.670775 -1935.680687 -1894.712054 -1842.057610 -1779.035879 -1706.981183 -1627.229639 -1541.103510 -1449.895400 -1354.853198 -1257.166232 -1157.952446 -1058.244820 -958.970295 -860.898781 -764.482309 -669.392146 -571.048527 -484.956495 -448.376817 -432.562959 -426.629594 12409.461803 12415.582862 12736.914089 13782.298349 13960.071927 13281.662827 12414.388506 11853.016167 12350.942207 11960.298926 10747.585580 10106.885167 9255.622014 8376.383090 7477.610992 6245.411900 4803.336119 3340.710445 2110.362836 1167.133873 442.302906 -119.863343 -558.291642 -901.300317 -1170.522071 -1382.652311 -1550.259381 -1682.433158 -1785.502954 -1863.776745 -1920.199235 -1956.868035 -1975.399334 -1977.165785 -1963.439428 -1935.470110 -1894.522840 -1841.890258 -1778.890682 -1706.858171 -1627.128567 -1541.023880 -1449.836539 -1354.814465 -1257.147649 -1157.956676 -1058.283514 -959.084845 -861.228637 -765.500640 -672.664361 -584.091071 -508.108206 -463.958482 -442.397249 -434.145069 12273.578318 12277.948553 12305.010848 12542.152766 12597.236184 12452.473819 12204.666079 12009.915446 11819.891929 11312.712494 10567.956059 9814.068592 8985.810344 8069.491439 7021.782420 5795.190075 4470.671039 3180.571236 2058.529629 1150.770546 436.386190 -122.646412 -559.992397 -902.505447 -1171.427779 -1383.352677 -1550.816766 -1682.893035 -1785.897372 -1864.126732 -1920.517488 -1957.161503 -1975.671312 -1977.417433 -1963.670776 -1935.680687 -1894.712054 -1842.057611 -1779.035883 -1706.981197 -1627.229684 -1541.103658 -1449.895882 -1354.854771 -1257.171359 -1157.969161 -1058.299303 -959.147886 -861.477464 -766.371233 -675.483068 -592.305136 -523.502374 -476.621816 -450.523988 -439.908483 13985.080240 13715.465823 13239.842039 13333.268055 12386.168720 12246.609485 11868.634521 9708.691311 8044.575750 6729.530802 4226.299222 2724.620400 994.676613 26.223479 -331.994185 -785.153437 -1157.888383 -1434.935623 -1620.567059 -1730.528177 -1783.579655 -1796.955471 -1784.852593 -1758.323315 -1725.655136 -1692.886781 -1664.463451 -1643.537482 13918.818342 13700.598269 13798.848201 14170.022108 13797.071061 13842.941190 14942.759084 14425.634985 13641.657451 14509.920639 13145.161928 12808.955241 9544.824909 15137.505800 13115.743329 9442.199066 13630.314416 12032.054322 12290.025741 11651.096839 13987.081736 13277.782179 14176.199819 15347.491552 12952.265145 12808.558394 1673.730974 6113.830942 13844.933076 13476.903785 13395.263489 14184.439599 13763.418805 12072.646459 11100.342837 8520.829173 13920.728104 7746.680110 14745.342219 14699.385189 13468.578216 12323.518666 11594.486130 13854.862007 11676.378544 6409.418638 13807.314006 12716.756258 13634.394853 10430.905740 11439.447444 10960.655815 13466.583985 7155.128690 10445.472789 9956.873038 14043.725048 13594.544113 13435.533337 9506.325889 10170.585317 11035.750024 9240.264938 6712.395976 13439.467729 13925.627097 12345.610223 11116.740972 12040.843965 9631.996695 13042.232521 6631.830718 10449.503482 3299.382598 13190.886109 12381.820303 9871.037866 9639.701615 14192.716685 8476.601936 8706.078584 11305.030586 10663.878126 4490.415010 14548.779180 14340.856002 14226.952129 14099.814192 10718.937411 13517.043730 13801.659125 14072.434222 14422.474621 12886.318573 13358.661747 3280.486218 8713.287376 5056.438271 11213.056801 14069.042105 10253.677350 11929.991902 10654.922645 11793.476958 7442.436564 13822.500495 5509.239408 4946.792481 3098.062953 3684.266526 7855.583305 2858.653498 15157.526583 14729.637749 13710.685109 15063.675739 12325.513186 10827.466172 15218.120289 13028.647993 14356.897908 9021.895705 5144.013813 13469.767079 7433.986112 9018.773675 9255.997348 7713.108143 2387.138307 2436.295226 6644.244613 3165.190078 7479.960345 2589.172880 11576.585779 8580.446865 5083.002015 9007.400482 2794.763908 4447.063641 15574.000181 15364.857419 13932.357758 14561.648954 13183.708827 8759.544755 15001.853226 9093.150242 15877.330539 8620.447740 13007.439286 14032.519917 9259.863559 6927.280017 11917.755260 7327.602702 9094.874856 4655.622781 11557.339389 11166.053434 12418.158454 6135.172612 2006.658068 7486.745208 2220.692872 2108.944412 3746.975717 3072.572210 15316.056435 15693.766962 16039.245466 10814.943825 13894.319579 13405.997899 12540.208157 8644.364498 12654.029158 7110.115173 6058.412718 9246.815524 13554.346718 9550.038329 13967.077710 11651.625464 6828.216112 10304.534156 8407.683938 7717.007043 6645.384404 10557.381257 3565.306016 8946.031660 9678.817603 6505.557609 3881.519055 4167.242816 14669.128863 14471.913455 14674.021983 13266.283713 11596.677144 14478.825480 12601.458997 13213.388296 15481.219828 12112.096300 15675.797012 12357.917929 12708.451308 8386.175027 7479.557374 14438.672565 9829.533628 12876.735095 4333.007334 5627.769499 7936.838682 4936.378004 5230.983801 2131.565520 7453.843419 2305.321266 4640.629836 2188.680113 14530.295386 15968.013852 17410.409869 16101.998748 13616.711167 15377.113491 13247.430814 10925.437056 10638.814995 10067.924770 10096.868597 5564.730483 9262.987124 10430.620614 6578.898648 7091.251533 5433.151341 10303.703489 6374.346338 12360.700634 7234.189716 4271.840124 6601.483274 8691.197964 4033.951783 3200.310675 2232.455708 5171.879306 14640.891828 17154.872965 20273.908938 14736.775934 15858.983160 14816.648533 9400.621540 12466.155823 5577.740050 13564.141576 7777.877913 9513.290774 8288.351309 2842.971878 8609.703030 9275.167928 7799.703015 7732.491313 10533.682603 6971.228262 7127.826860 3943.903819 7731.462400 9751.294345 5865.754135 6135.197080 8421.223698 4211.586628 14639.835987 15591.692559 17198.977835 14729.983184 11315.543108 15752.027187 10392.861254 12562.141658 9975.241629 11143.322774 5834.520800 8785.457625 11749.643193 10420.469344 9225.421105 10928.091757 9442.962556 3251.648190 3236.790070 4352.355002 9707.809600 10524.522470 2796.911047 7748.041260 6440.859143 5436.946252 301.188717 2193.126635 14863.362150 15175.431387 15078.047274 16805.480006 15058.895509 12107.531183 10267.577212 12548.951931 8752.105820 9192.008418 10025.745806 9849.161737 11993.050366 1969.131642 8437.914264 4233.033125 10671.069026 8442.985926 6014.040848 11945.828141 10725.981747 7440.806125 12883.297263 5212.415161 7223.478837 2889.270042 5337.969826 7755.281836 15192.649299 15737.815405 15508.837467 15755.555237 11628.765510 15323.902987 14245.958919 13124.041172 8369.536698 15795.844163 10277.755943 5667.483030 4086.414605 4120.098272 3339.143813 8667.429460 8459.923406 3357.336341 5908.076545 3689.288675 3927.919648 3231.599043 2232.225030 9511.205008 4120.180844 6621.053920 9480.636001 3427.589634 15490.397452 15813.780635 15475.116815 16128.574081 13545.568205 14209.552355 13521.488111 13485.683338 11614.386402 10900.873401 9608.797050 6972.689594 4295.229074 5021.781312 5006.155482 2105.560877 2194.889740 5374.585384 4459.641029 5987.168358 5880.483136 3895.394057 3828.010769 3535.179964 7443.920771 2566.439635 4379.272481 2054.057029 15840.537206 16302.343050 15308.478202 13523.750799 15498.159095 12616.296591 12920.236279 11425.952773 10760.628109 9373.250676 8990.576751 2044.544500 -2567.219338 16015.303801 17135.633946 16435.724630 16443.642512 12642.997577 14947.030971 14531.836659 11008.449048 13773.723128 6838.575007 4210.261468 3333.458010 -415.418946 16069.107051 17168.451091 16745.573600 16831.398776 14496.235685 12258.725027 4407.820513 15285.274858 12579.230958 4522.093087 6278.305841 9661.000150 8826.235412 16391.346631 17716.355491 17555.810969 15905.450088 15264.302607 14702.718254 10841.659434 12331.299421 6683.272326 7506.880269 3818.543765 3603.498110 3871.085418 16739.573642 17797.734575 16701.628968 15619.512296 15195.691735 15009.673672 11919.233032 7387.740307 6352.110186 8073.978171 10003.116513 4382.907516 2993.407791 16687.721319 16506.010154 14886.531112 16475.819292 14164.377196 15920.325897 11472.518972 14834.782194 3545.760223 4779.006405 9223.788787 2149.979093 5304.486487 16435.671413 16401.263286 16177.537612 16642.937527 13547.558849 13189.064179 9180.570677 8675.359741 6392.716163 10975.221370 9229.023393 2032.309094 1720.457418 16248.176007 17693.635062 19171.066601 15270.788595 13416.726324 4409.118804 4210.493596 6435.282302 3856.573674 11804.136274 6049.381671 5836.049542 4133.013960 16207.059694 16802.535897 17276.660920 15804.738064 12754.285260 10115.198313 10571.359447 13533.656595 9684.427681 8171.471177 2581.933292 613.287821 5282.128135 16537.869169 15574.771949 14061.474767 15204.552716 17485.335270 14082.076895 13770.616923 8376.044815 8489.303448 8801.557104 7520.948775 4081.446044 14036.545222 17166.131914 15972.745349 13757.419948 14364.468608 13396.616565 13630.118348 9933.902752 8413.508453 9736.794217 11226.781063 6647.137007 7212.229898 11760.652123 17584.077464 16781.994054 14133.369682 14992.981867 14278.972997 16969.887530 12913.482483 13174.478830 7295.706258 9077.465346 11515.089660 3281.942434 5690.220563 17370.148526 16920.715063 14750.294983 16967.060099 14811.441498 21364.593509 13648.030871 12480.018112 3471.634912 10610.950764 11921.053736 3277.857779 5389.801667 16828.251459 15949.457721 13980.366338 15832.749398 12605.975644 12639.737574 17469.441525 14358.211438 7063.862136 13493.059539 5222.555288 4370.288222 4192.155367 16501.023192 16129.116234 15195.254745 17684.082698 14114.902156 15048.875142 16749.042543 16006.754590 10740.403936 16160.437390 3811.459935 5953.913130 -440.158643 16401.513768 16034.928080 16320.574966 14976.802698 15757.300639 18569.246431 16705.445745 15551.267981 10944.092507 14185.461524 7070.066946 5322.408547 -5693.791034 16736.547844 16520.106939 16313.403421 10905.723964 18471.020509 18246.130593 13343.704893 15940.871746 6672.139103 9555.940733 2678.380307 4794.998447 5156.694947 17198.064346 18201.300003 18515.101415 17435.871327 13778.556414 15163.956280 12315.230168 14073.144094 9623.526731 16219.069602 5059.738873 1824.484269 5777.637268 17215.529348 18090.455922 18097.131824 16309.941496 21207.039604 16090.804394 12573.822835 12794.403926 12186.521452 7978.521259 9791.756248 11887.111110 1718.429382 17151.546803 17318.660190 17373.204580 16483.347155 18094.407028 15611.771327 15572.003439 7366.730506 10789.897554 12241.787041 13502.463474 4482.945816 -14317.157932 17285.890907 17057.537681 16233.781618 14365.052638 15396.024681 15569.046849 13795.198550 8795.606829 15133.293832 7371.156379 5546.835369 4079.051359 3645.543044 17374.142192 17199.949526 16811.448168 17634.453876 16366.217031 16361.199317 7985.876596 11565.281167 9964.887201 5644.953618 8039.409822 4700.844017 3881.256076 17352.350554 17895.565692 19104.375084 18877.035814 13563.162107 16190.609919 13635.644892 10024.022030 9197.650116 4848.193203 6777.059460 7865.365689 5287.063299 17223.829388 17678.652609 18206.753379 15950.904913 13927.088046 12297.088871 11211.188050 10853.341954 7649.163611 6870.897027 4366.892184 7078.947558 9130.251693 17038.075565 17085.242125 17801.136384 18560.108682 18858.121117 16339.962405 10923.980728 17000.870567 8177.253755 9664.990649 9344.916787 7372.126903 16433.932094 17068.254421 17360.352777 18428.988618 17869.032137 17048.721466 7848.201830 10038.364248 10681.317242 12241.621966 9344.885334 7763.337354 7689.499150 9607.713103 17512.686717 18049.913943 19485.464019 18209.515067 18296.701366 15490.826010 4291.163884 16697.012247 9191.908089 9317.556679 5766.187981 5352.787413 7726.398944 18015.985172 17311.101607 16772.498349 18149.566715 19384.283367 16750.694120 5869.181153 13650.840896 5312.810870 8191.160273 11336.550485 13602.641444 8718.381112 18319.853222 16644.454294 14733.675901 18890.256688 16275.350150 12752.240737 15142.825978 14691.721291 8293.502402 8204.743205 8638.593644 5394.848897 7618.789604 18317.320429 18466.954224 19074.869291 15787.491141 16313.915935 17906.717321 16635.450539 16118.156720 5437.828928 7057.406872 4608.035468 6079.929671 27447.296380 17948.825897 18191.640010 18918.164752 19334.128679 14610.465978 5653.295600 9543.972779 17954.141328 17692.696758 11671.643413 8614.566939 7499.534066 4544.287778 17935.757447 18230.940370 19331.767381 17805.856712 16430.431071 9275.308256 11868.534101 14345.922057 8171.975315 6573.998817 6499.390639 13202.733353 6479.605999 18440.836635 19642.626108 20456.772821 18722.959619 16060.769132 14721.514086 10614.011416 13471.930724 9677.987384 6746.544822 5508.220518 12181.085878 8579.355502 18959.588689 19491.763794 19643.752915 18928.939915 16508.252195 15493.852392 13211.387327 9668.501741 8682.081460 11654.027610 10005.513050 11424.665073 8941.490299 19308.802727 19128.958559 18691.644438 16678.760089 17372.014966 12749.541141 15403.978735 12575.743660 9505.210432 10896.860327 13709.135811 5378.214517 7019.119580 19483.897635 19340.421308 18051.670254 16489.113261 15653.491864 17151.868338 16316.669982 12247.841461 7050.129580 8664.464851 8148.190369 9574.998995 14301.836036 19423.107812 19104.899998 17810.163139 17657.538249 18529.579823 14761.498566 13223.681666 19315.283167 10257.539483 9965.036071 8909.778231 11438.230809 31956.131191 19335.789036 19221.659325 19051.300451 18663.337268 14518.351330 14447.782637 21602.221172 11245.113877 11386.805195 9106.629418 19673.536606 10489.822707 6816.708224 19495.896625 20012.572909 20210.673499 17758.256877 20523.121363 16135.967654 9833.453766 6403.745049 11915.154317 10239.742229 7385.868717 6374.070858 5848.467503 19680.815505 19564.121171 19371.179390 17242.995223 14345.889581 18109.298408 12478.039677 10237.004015 9977.196319 12348.417780 10503.615193 7260.276247 12348.785288 19829.086575 17634.269888 15469.513105 19180.599195 17627.424562 13925.474953 16102.956564 11949.875148 9718.318107 12318.765424 10974.541772 8863.873576 7409.063793 19982.476042 18521.233675 14960.936601 19538.027210 21351.886394 17519.097522 10554.104959 11203.086234 14774.857756 10346.064851 11761.342233 10363.658871 10428.215734 19873.746304 20299.178089 19169.705287 19850.533587 19287.531480 16062.981139 15806.244461 13882.664230 14140.887524 3653.952008 7969.735530 9558.926253 5772.505706 19545.171903 19334.947479 18549.112966 17164.142486 20834.336309 13983.717607 14846.870612 12682.725875 11682.597064 13806.465748 12349.017706 10220.734554 9005.090727 19276.474129 19041.489507 18464.840613 16457.561802 17385.366891 16056.795418 13559.984480 14638.721089 12794.982421 8547.323064 7548.146383 6962.970874 6638.651959 19034.309857 18356.338662 17344.854006 15459.854508 17225.369806 15927.806147 12036.745287 13361.738717 13421.660323 14398.550084 9898.461288 11286.963702 9206.494303 19088.382086 17661.309484 16294.194310 17307.636429 16166.582292 15113.506455 11290.807166 14610.224113 12397.795116 13527.295329 8260.246603 11056.759279 9238.518700 19471.502222 18381.833031 16821.076881 17494.672828 15401.587948 11427.071431 15656.729545 13419.760844 13670.675480 9213.008913 10250.084349 10712.296242 10528.089992 19784.221304 19714.672374 17797.114300 17601.251417 17628.600766 16052.392849 12070.928169 11599.829481 8032.464276 13933.746602 11436.927529 38984.943273 9033.145023 19878.626497 19447.545431 17829.501206 17462.162615 16953.298995 15252.653875 16153.277155 16055.720036 16246.848991 12277.771032 4820.177164 12866.675728 11438.073833 19821.299600 19225.673802 17796.575275 19354.356016 16092.466187 14701.365165 16361.820835 16468.771279 11365.343575 13190.300560 13744.746801 12012.227712 9379.030592 19703.446125 19509.126326 18401.515679 17729.984689 17815.370746 16427.688364 14743.557723 13078.152156 14850.947679 12580.575175 12931.511383 8247.712123 6065.049954 19557.096341 19197.310261 17789.039697 18781.249360 17107.035806 15010.262029 14680.004344 16240.833076 15360.217569 12898.178273 8543.476402 8502.127824 7327.879657 19174.043599 19403.848730 19212.993997 17035.563820 17797.886978 16035.266831 11518.950425 15854.913251 13020.020866 12052.678743 14267.034756 5436.333255 8615.092465 18729.353049 17431.716477 15965.555353 17763.593909 18857.035699 18048.092361 13153.142678 15470.501880 14692.603073 12834.166842 12402.631391 9025.715089 6072.925975 18779.438189 18882.073235 19666.205187 17198.120314 16530.977152 16971.050162 15955.636133 15590.002738 11371.376056 13079.102783 11462.352410 14022.741416 4688.097008 18815.903472 19129.656155 18878.948515 18186.058572 16983.201458 15662.184338 14649.694424 16832.341477 13395.493476 10070.582104 14069.262880 6834.213682 5702.070148 18605.057588 18834.248218 17863.220195 17742.850016 17189.920828 13998.885902 15801.217608 15254.257226 12271.332673 12501.658726 10044.392011 10800.483858 11286.769746 18056.196411 17428.474418 15602.729839 18089.271582 15112.951915 17028.846647 11011.672085 10652.465177 10394.535574 13078.478234 8255.663783 11813.589185 7555.822153 17608.837073 16284.664445 15291.840293 18729.408016 17251.253079 15337.763041 15600.877785 12499.015340 12789.535163 10685.065222 12322.042083 8669.528952 5879.125130 17510.792759 16766.202197 15707.771502 16673.479083 15828.326394 15129.367663 14154.062526 13110.194010 14434.692383 11180.542446 8145.800413 9552.008821 11211.567200 17548.442327 17172.221607 17125.798707 18673.893271 17705.986757 17462.927716 15360.995888 14232.496648 13902.074255 10813.607892 6286.028843 8788.780372 6168.395181 17543.229901 17191.701987 16445.876614 17271.903160 17742.609248 16874.388559 15507.539524 13911.280123 13822.493124 9355.527074 10162.502846 4828.980007 5500.904688 17468.749773 17811.511441 17489.477200 17254.304191 15560.555191 13708.664305 13802.224863 12010.730726 8058.728868 14857.275386 10042.249869 9034.687008 7293.451094 17352.897137 16948.756174 16821.010464 17367.110928 15372.901148 15966.473091 17072.344588 16411.901481 11680.223122 13826.542648 11278.069877 10160.514168 10102.912169 17314.239617 17874.686703 19060.198182 17836.000917 16350.122903 16247.890697 12651.887452 14478.128010 13821.077276 14910.262396 11025.394588 6599.794905 4254.726798 17187.011253 17474.734940 17776.448118 18294.695377 15689.215081 16698.966524 12308.622790 14843.467284 7751.085740 9112.466369 10177.131679 8104.068596 6332.190145 17070.218300 17802.755884 18386.247927 17449.264141 16253.053690 14941.727608 16976.777349 15264.022443 9723.278028 9006.137538 9292.246117 5758.281265 -9079.855130 16855.868251 17164.598801 16753.583787 17049.761861 13688.168937 14417.310567 14503.853726 13665.365562 9264.271231 15169.155226 9598.020875 7126.822247 10278.282949 16625.484838 17442.089787 17605.970318 15902.989219 17268.623912 17053.626342 9245.481563 11397.292862 11306.100876 12433.130603 9482.452871 11605.122407 6297.885655 16195.719769 16141.593865 14725.475408 16217.399679 15774.790791 11817.545692 13910.448075 14947.011733 16097.027880 14845.405229 6802.262102 7603.745650 6363.032893 15805.986475 14885.944304 13986.499979 17183.089347 16260.948105 16074.054562 14750.788623 14288.582862 14475.350391 14580.315529 12354.412785 11788.887465 9762.603657 15605.219768 14576.365588 13564.970664 16092.183151 13042.193979 15381.947288 13707.304833 12930.429462 11346.116069 7029.619223 10950.841542 7999.183273 3579.232813 15533.233142 14925.600071 14262.337659 14406.943093 16007.349965 14991.935188 7462.413232 11921.059928 6087.646610 8698.631294 10871.601182 10757.967309 5702.756867 15524.112769 15878.375494 16035.941147 17324.722690 13024.632888 11663.848805 14478.906085 10916.961031 10228.063922 10512.913610 12236.311812 8816.092608 10710.662191 15526.465689 16262.905310 17063.522359 13684.405149 14177.106722 14570.287616 12594.223694 13919.573314 9780.998680 11555.810472 7692.392578 8160.232702 7122.975621 15473.302257 16076.104529 17403.792048 13506.566814 11725.355025 14263.635979 15148.110849 8204.097453 12951.318208 9108.400402 7610.472223 6178.128622 5023.044078 15342.341095 15828.855422 16517.438852 13068.202612 14183.961753 16670.970654 11213.747679 14315.341087 13616.948087 12555.066572 10887.773153 7951.159838 8792.539796 15144.205507 15871.697733 16677.470279 11024.510986 14789.479021 12852.468566 13050.076779 8173.212354 11256.148005 12650.011195 11556.502386 8640.249665 3868.294388 14847.792110 15593.508679 16784.884192 17052.045911 14021.109610 17283.522137 13257.159979 10769.748154 13054.954096 5858.326721 13153.937245 11909.016302 4673.390416 14575.885705 15814.589427 17303.533909 14950.986010 16502.666073 12994.178430 14208.705075 13025.530540 14560.724464 14315.257830 13420.936966 11324.760016 11259.076741 14303.927908 15307.886201 15944.651203 13995.355358 12454.848282 15818.765899 15175.999432 15904.490823 13424.043761 13457.517922 14670.141309 8806.194800 6263.759065 13941.330610 14234.416709 13976.825748 16723.417450 14513.761893 12112.728077 14942.693253 13761.304729 16170.475866 16890.907736 14715.975830 13577.734041 7984.863821 13443.179663 13269.714347 12712.453298 17433.792578 14402.046948 16357.421222 16880.074389 18009.056343 16527.946183 13481.739907 13761.856137 12579.161056 16107.571882 12864.518871 12612.567086 12075.278734 14666.081008 15066.092613 15928.645944 16424.731343 13685.158584 15297.919988 14575.298633 16177.124783 15361.241790 15935.214320 12566.714327 12575.814274 12542.255781 16663.264310 17584.061567 16226.736188 16852.046422 17253.975799 16077.312019 16539.990192 16347.517858 15983.879564 13219.221488
</DataArray>
<DataArray type="Float64" Name="Velocity" NumberOfComponents="3" format="ascii">