<VTKFile type="PolyData">
<PolyData>
<Piece NumberOfPoints="2177" NumberOfVerts="2177" NumberOfLines="0" NumberOfStrips="0" NumberOfPolys="0">
<PointData>
<DataArray type="Float64" Name="Pressure" format="ascii">
 11045.330860 10976.964136 10738.297210 10284.467135 9656.332533 8907.950158 8068.727452 7186.948837 6325.105462 5525.213745 4796.186235 4117.959833 3467.026940 2836.023559 2238.389363 1694.586646 1216.476630 803.909343 449.745507 145.255425 -117.133986 -343.211492 -537.276436 -702.633233 -842.053211 -958.235233 -1054.382732 -1134.739537 -1203.479293 -1261.571335 -1307.480744 -1340.612290 -1361.679176 -1371.897048 -1372.552026 -1364.844361 -1349.845274 -1328.493225 -1301.604353 -1269.888315 -1233.966004 -1194.387355 -1151.648059 -1106.204432 -1058.486012 -1008.905982 -957.870591 -905.791696 -853.115523 -800.407547 -748.608248 -699.638153 -657.157418 -625.479253 -606.197786 -597.962111 11229.350700 11173.359554 10992.906190 10670.397759 10043.736199 9170.170429 8217.759922 7247.413366 6320.570421 5493.297682 4765.948732 4099.993259 3467.345331 2848.363998 2251.849024 1704.658524 1223.126764 808.216380 452.684834 147.449559 -115.342254 -341.637346 -535.796531 -701.103788 -840.198935 -955.451728 -1049.562404 -1127.111533 -1196.852262 -1258.487225 -1306.255676 -1340.093726 -1361.403788 -1371.711872 -1372.407541 -1364.723729 -1349.741853 -1328.403669 -1301.526521 -1269.820640 -1233.907292 -1194.336695 -1151.604740 -1106.167789 -1058.455021 -1008.878067 -957.837837 -905.728757 -852.941211 -799.868333 -746.951922 -695.329089 -648.727367 -616.037096 -598.089033 -591.223663 11429.638175 11220.583917 10958.380316 11757.265690 11208.664821 9851.569886 8744.358157 7469.768649 6324.739622 5436.688420 4657.069854 3996.392754 3436.641580 2856.877038 2265.898964 1715.476029 1230.229088 812.761450 455.742887 149.703519 -113.516846 -340.037985 -534.286306 -699.516567 -838.194771 -952.181975 -1042.723896 -1111.958133 -1181.927138 -1254.438304 -1305.345003 -1339.963269 -1361.482373 -1371.837349 -1372.533918 -1364.838869 -1349.843608 -1328.492719 -1301.604198 -1269.888260 -1233.965962 -1194.387261 -1151.647766 -1106.203483 -1058.482926 -1008.895944 -957.837940 -905.685479 -852.770041 -799.282405 -744.974721 -687.234581 -629.499453 -597.907158 -584.040367 -579.866848 -591.636389 -576.829645 -571.197503 -549.250076 -543.819558 -541.024309 -503.089828 -501.789685 -500.644606 -461.603049 -461.240876 -460.845716 -422.627437 -422.542479 -422.394337 -385.846922 -385.845013 -385.775112 -351.194761 -351.218410 -351.172642 -318.668563 -318.700012 -318.661750 -288.267603 -288.301166 -288.265505 -259.976317 -260.010027 -259.975670 -233.761077 -233.794145 -233.760878 -209.571123 -209.603151 -209.571061 -187.340761 -187.371505 -187.340743 -166.991935 -167.021223 -166.991929 -148.436803 -148.464516 -148.436801 -131.580218 -131.606279 -131.580218 -116.322022 -116.346384 -116.322022 -102.559112 -102.581762 -102.559112 -90.187281 -90.208230 -90.187281 -79.102802 -79.122081 -79.102802 -69.203763 -69.221424 -69.203763 -60.391177 -60.407282 -60.391177 -52.569849 -52.584474 -52.569849 -45.649057 -45.662283 -45.649057 -39.543030 -39.554945 -39.543030 -34.171276 -34.181970 -34.171276 -29.458763 -29.468326 -29.458763 -25.335977 -25.344499 -25.335977 -21.738887 -21.746455 -21.738887 -18.608827 -18.615526 -18.608827 -15.892314 -15.898225 -15.892314 -13.540818 -13.546019 -13.540818 -11.510503 -11.515064 -11.510503 -9.761934 -9.765922 -9.761934 -8.259783 -8.263259 -8.259783 -6.972519 -6.975542 -6.972519 -5.872112 -5.874732 -5.872112 -4.933726 -4.935991 -4.933726 -4.135441 -4.137394 -4.135441 -3.457978 -3.459657 -3.457978 -2.884439 -2.885879 -2.884439 -2.400073 -2.401306 -2.400073 -1.992052 -1.993105 -1.992052 -1.649275 -1.650174 -1.649275 -1.362182 -1.362949 -1.362182 -1.122599 -1.123254 -1.122599 -0.923593 -0.924154 -0.923593 -0.759356 -0.759839 -0.759356 -0.625102 -0.625523 -0.625102 -0.516993 -0.517366 -0.516993 -0.432075 -0.432415 -0.432075 -0.368247 -0.368565 -0.368247 -0.324239 -0.324550 -0.324239 -0.299625 -0.299943 -0.299625 -0.294849 -0.295190 -0.294849 -0.311285 -0.311663 -0.311285 -0.351309 -0.351744 -0.351309 -0.418414 -0.418925 -0.418414 -0.517339 -0.517949 -0.517339 -0.654235 -0.654970 -0.654235 -0.836859 -0.837749 -0.836859 -1.074803 -1.075881 -1.074803 -1.379745 -1.381051 -1.379745 -1.765747 -1.767323 -1.765747 -2.249569 -2.251465 -2.249569 -2.851029 -2.853302 -2.851029 -3.593381 -3.596092 -3.593381 -4.503720 -4.506939 -4.503720 -5.613415 -5.617218 -5.613415 -6.958547 -6.963019 -6.958547 -8.580366 -8.585598 -8.580366 -10.525738 -10.531827 -10.525738 -12.847581 -12.854634 -12.847581 -15.605284 -15.613413 -15.605284 -18.865075 -18.874396 -18.865075 -22.700339 -22.710973 -22.700339 -27.191856 -27.203927 -27.191856 -32.427947 -32.441578 -32.427947 -38.504497 -38.519811 -38.504497 -45.524842 -45.541958 -45.524842 -53.599485 -53.618514 -53.599485 -62.845630 -62.866671 -62.845630 -73.386491 -73.409632 -73.386491 -85.350383 -85.375689 -85.350383 -98.869538 -98.897054 -98.869538 -114.078663 -114.108405 -114.078662 -131.113198 -131.145148 -131.113195 -150.107276 -150.141377 -150.107265 -171.191375 -171.227523 -171.191340 -194.489666 -194.527689 -194.489552 -220.117061 -220.156673 -220.116691 -248.176008 -248.216664 -248.174808 -278.753176 -278.793626 -278.749287 -311.916495 -311.953328 -311.903892 -347.714074 -347.737000 -347.673231 -386.180022 -386.156353 -386.047682 -427.364482 -427.186481 -426.935691 -471.441303 -470.741885 -470.053223 -519.277384 -516.591302 -514.762563 -571.328750 -561.356215 -557.125667 -598.260556 -582.241315 -575.274730 16225.495577 15903.832273 15788.924871 16243.827805 14933.383790 15208.721099 15538.392729 15281.064667 14369.658346 12325.379292 10763.693953 8796.837641 7900.726276 6356.729781 2492.348409 360.372057 -550.341923 -31.292149 1446.021989 2275.787163 2810.903478 3089.515213 3159.386146 3076.255454 2888.902522 2632.086026 2328.287715 1992.874071 1638.457422 1276.960831 919.825366 577.395616 258.267280 -31.074253 -286.305857 -505.108015 -686.896594 -832.511720 -943.899675 -1023.806464 -1075.494641 -1102.492614 -1108.383993 -1096.642006 -1070.510384 -1032.927932 -986.489545 -933.430575 -875.608617 -814.413447 -750.450184 -680.966910 -617.745864 -590.299158 -578.486622 -574.279212 16180.669597 16106.233283 15979.881408 15695.043734 15358.811389 15435.763561 15437.105613 15717.762588 14798.715793 12993.849658 11260.268913 9695.336444 8478.201503 7054.047625 5151.775075 3496.391853 2211.506983 1753.468862 2015.853217 2498.151094 2894.920321 3119.820593 3169.547872 3079.231745 2889.455359 2631.895427 2327.942153 1992.591326 1638.322885 1277.001099 920.034239 577.748309 258.730470 -30.535679 -285.724896 -504.513609 -686.312806 -831.957486 -943.388870 -1023.348195 -1075.093740 -1102.150305 -1108.098702 -1096.410311 -1070.328250 -1032.792893 -986.406150 -933.426825 -875.788951 -815.140038 -752.925528 -690.907448 -635.922945 -603.344335 -587.375508 -581.395678 16048.073703 16006.806091 15924.122740 15881.854399 15901.743312 15841.856700 15629.872026 15238.118177 14333.204383 12918.825399 11403.081368 10055.687466 8911.047526 7713.931484 6250.189999 4674.078094 3344.962038 2604.716909 2484.018457 2706.038010 2982.439480 3155.657075 3184.189530 3085.334477 2892.140668 2633.207783 2328.665499 1992.998920 1638.498687 1276.974810 919.830315 577.397454 258.267987 -31.073977 -286.305748 -505.107973 -686.896578 -832.511715 -943.899676 -1023.806474 -1075.494677 -1102.492732 -1108.384377 -1096.643253 -1070.514435 -1032.941084 -986.532248 -933.569238 -876.058758 -815.877208 -755.154634 -697.282128 -648.003145 -613.801252 -594.600601 -586.828541 11453.838312 10744.988468 10062.754705 12695.020422 12374.722253 10222.910044 9394.553416 7929.662006 6340.710636 5442.568918 4603.984639 3844.370507 3358.668422 2857.191217 2269.162452 1717.680020 1231.390356 813.313625 455.999148 149.831579 -113.439024 -339.974127 -534.211503 -699.392889 -837.930305 -951.512835 -1040.537666 -1104.205049 11374.275251 10283.347190 9674.301753 11187.097030 11106.979328 11137.621149 9506.501468 13587.654621 12915.856384 12501.569373 12746.208940 10247.410160 12511.357961 12557.831014 9841.811565 9715.922617 11492.981517 9339.800338 9443.353746 10392.524792 8820.937450 9755.936719 11846.196983 11158.645319 11088.952365 10043.602906 2920.670461 5347.047596 11165.129412 11741.180118 12818.180705 12026.534184 12309.977644 9938.595575 11190.299967 7344.563673 11105.093787 6523.934948 10355.824850 12407.894203 9893.445478 13505.113300 8758.751994 12876.297317 11471.562704 6971.037752 11443.146210 8561.700295 10501.953662 8876.062047 8066.402002 8666.626430 11289.339601 7414.894078 8654.278650 9279.465781 10848.558700 10683.511542 12111.112575 10385.498730 9736.921557 9146.497934 7894.121176 8239.050981 11920.449867 12824.512140 13126.162966 11487.384914 7790.229587 9196.019835 11098.613480 5638.027030 9313.361139 3641.536487 9253.934649 9686.418244 8858.697891 10727.687059 12279.147390 9386.324355 9164.382800 9372.718235 10658.280085 5675.401156 11069.146851 11015.736832 12633.203432 10232.192781 7511.186289 10712.368299 12311.254858 11613.281143 12404.180470 11003.917013 10122.816900 4107.943400 5859.837140 8152.301752 9984.010583 11927.035314 7139.947363 12387.417115 9762.998851 11296.822859 7223.712095 11683.627596 6495.155847 5002.167258 4026.513870 3904.912337 5825.500695 4963.042255 11916.466160 13298.473524 15621.132711 12217.060612 13468.721061 10051.774365 13080.787265 10056.142784 11466.544083 7361.245267 5248.573393 11066.013685 8495.611682 7007.425855 7361.693343 7187.336958 6191.491781 2047.257763 5523.953272 4131.880942 8042.076142 3919.731135 9080.012350 7042.158098 6899.948307 8126.264813 4729.711089 3766.208799 12543.397140 14043.794874 15555.983529 12040.246348 10187.401090 6768.693535 10711.479682 7367.413834 11975.907111 7623.438478 10303.413800 9786.481985 8386.891675 6704.215753 10653.367940 6590.263135 7309.822402 3700.915978 11440.402655 9240.110836 8418.973381 4406.377885 2666.336629 5735.923291 3361.976356 2711.177927 4124.411876 3012.829343 12506.561161 12812.475518 12809.399034 8716.449023 12808.348533 12899.302229 11112.953330 7936.734906 12271.880415 5052.951791 4308.972984 5904.670940 12713.169515 8731.408048 13772.893095 8715.196071 4969.892459 8818.028397 8780.737861 5554.928864 6183.200172 10969.036219 4885.343998 6264.139679 7943.364290 8280.161783 4389.206217 2807.072631 12247.586138 11630.377852 10984.015282 13080.565919 11773.234124 12503.118287 10821.232958 12077.887313 13770.581706 11018.937186 11096.762282 11107.285185 10584.423288 6981.551734 6390.719261 11899.109508 10593.547929 11365.085078 4028.096390 3500.407786 5283.101114 5625.052454 3757.215729 4145.311598 7169.148907 3012.625926 6080.870278 2870.305129 12156.478615 11864.993861 11570.450735 12813.225608 13045.016342 12496.414458 11313.784864 10452.037033 10645.778832 6828.922148 11340.594513 2964.921955 9333.378487 9671.281768 5908.532113 6576.284649 5868.298886 7966.574111 5577.941450 11311.613532 3911.017804 3584.889295 3793.818414 5817.565846 3554.987725 3254.606520 4150.667621 6511.861700 12273.984863 12554.241741 12432.910572 12993.920842 11569.698160 11716.384569 9103.762620 12324.012470 3842.611263 12403.317204 6336.020470 9486.113470 6789.369769 4210.718153 8917.479948 9773.469899 7609.031993 8008.852996 7767.165432 5864.589142 6134.356041 3214.036966 8534.666759 9322.458464 4680.859130 6876.405965 7074.240445 4194.956156 12505.668142 13462.371004 13522.372050 13166.107975 11494.892226 13133.585580 10242.134977 11278.132107 7819.798560 10209.624337 5133.185896 5853.277855 10110.298578 10440.868475 10840.608320 9791.775874 9087.214337 3981.416491 3376.553290 4045.942418 6297.375089 10037.888867 3880.126577 7920.815085 4265.508456 6016.441858 3726.401863 3571.027985 12620.259059 13661.653790 12896.854232 12043.030810 13024.931239 9488.160395 8263.097014 10450.994064 7513.739610 9007.626746 7570.109745 10226.034702 12470.296672 8615.258688 8981.325312 4274.432127 11398.686830 7581.870892 6477.148784 10894.375776 11227.780062 8806.884132 12144.170084 4898.220187 6972.077178 4278.655078 4577.004287 4575.533370 12449.527733 13013.127914 11625.993205 14045.158527 12204.055565 11952.264019 12377.058126 10842.448887 7307.881438 13356.633312 8740.888258 5619.691055 3737.048585 4559.894934 9930.481097 9784.214569 7925.676158 4156.459604 6829.483442 5722.773263 7597.345331 5417.223787 3482.319041 8090.693521 4535.891295 3860.887330 8147.669807 3604.420989 12120.496350 12888.849834 12445.818740 14577.281923 13205.640178 14104.225029 15173.119467 10516.180651 11071.101489 7708.050991 12345.778405 7466.032268 4755.397464 6147.239020 2501.929352 6657.759026 10489.071572 7071.690518 2566.634000 4879.977076 6173.468135 7754.449993 4282.470824 3860.568691 5852.131814 4127.701982 3780.658133 3510.029681 12104.198333 13513.500765 14801.171237 14057.166681 13973.143960 11592.457924 14368.553231 10891.319621 10759.125463 8533.748486 8240.277432 5835.729865 5414.961784 12369.897594 13750.769162 14918.423955 16326.168785 14443.313598 13265.945007 12470.626426 10323.152197 13042.315827 7921.162922 6559.066058 7101.743572 3724.944723 12563.084782 13042.978842 13277.437635 14708.815457 12998.117672 12204.642063 6172.669091 13841.317778 11865.873550 4065.051153 8916.080558 10183.160702 9142.687662 12668.579135 12542.065812 12475.815342 15410.865961 12739.119993 12429.209869 9137.437845 13434.739035 6366.827365 7996.215512 6205.533701 7341.157927 5838.337113 12777.487801 13142.272319 13610.380583 16187.439204 13501.296339 13421.547296 12207.216718 5371.681829 6249.211132 9170.335440 11534.809224 7169.398366 2821.733710 12842.936500 13009.519715 13391.048456 13963.727910 14367.291300 15558.961604 12047.743207 14755.348994 9238.713125 7192.919464 10604.029886 3725.954632 8695.018999 12886.952982 12654.774931 12708.506932 17035.237424 14394.768769 13583.171995 9259.991302 9517.837381 10109.048775 8334.381221 11267.594194 8977.040063 8592.945095 12923.773950 12658.417685 12702.519353 13645.566541 13375.312683 7126.582531 6417.128609 8696.679897 8118.213386 11805.803714 6687.292977 8106.462447 3492.780324 12877.713176 12290.705506 12004.609384 15167.095307 13827.882605 9884.287822 12498.586084 10788.139039 10449.576309 10748.472006 7371.646301 8702.129387 4702.287865 12819.257857 11442.012601 10646.352154 15992.547464 16294.987268 14611.636395 12170.598198 9969.463904 9787.824913 9700.702298 6783.902974 6188.468950 12471.396513 13023.819322 11596.729473 11172.519365 15577.942566 12308.574751 11798.368335 11219.127817 8742.498096 10597.906895 13532.372809 9432.150306 8900.061968 12265.005582 13284.750098 11909.182681 11069.475259 15966.806840 15283.229803 15335.300049 14430.854347 13567.100752 7811.263874 10591.612157 10858.663227 7977.677266 7730.955829 13452.674787 13212.595673 13241.434382 17013.996531 15522.134799 17407.701993 13187.534628 14452.257360 6546.519824 8863.698945 12571.787973 5353.904035 5687.686029 13603.179007 13993.392465 13801.352927 16323.079720 13613.734130 11646.287172 16293.181343 13243.232408 6365.580858 13213.668209 7555.209715 5273.174375 7531.306869 13609.647262 13650.112258 13487.077462 17440.505318 14692.186641 14628.334542 16906.809552 16550.182911 12863.783213 13270.722572 10506.560196 10043.127137 6963.038035 13483.749174 13358.988176 13403.075063 13764.039244 13664.273865 16674.854883 14761.866793 15442.088867 11758.017103 12744.651670 7974.797312 7265.612502 3139.216572 13617.264733 13789.575527 14157.966085 9634.968328 15157.136607 14967.827756 14109.129180 15173.971528 6881.583663 10877.558057 5754.413596 9187.380722 6865.567878 13927.996382 14589.950603 15324.567260 17056.789011 15592.978453 13625.664652 11164.259939 12189.666750 11875.108043 14469.893129 9248.666476 4145.494709 10177.950551 13921.932222 14576.130322 14957.406472 15172.020535 16418.890986 15146.141635 12446.615980 13449.548447 11435.903413 8905.809812 10844.400777 12236.960990 2869.065232 13759.111189 14378.433411 15165.878810 16974.551303 18208.347341 15844.172168 14037.451365 11373.832144 10092.052662 13467.666607 15211.262285 8351.075142 14368.248959 13771.226929 13228.624273 13482.889458 15602.121304 16251.034777 15684.847944 13891.811371 8903.312257 16341.917893 8782.324550 7312.984823 5093.648913 5384.377407 14012.907515 13796.724587 14153.050587 18037.166716 16069.424572 15331.834541 9420.419234 12893.352856 11996.217300 7254.882891 10893.098965 7783.338035 6991.700594 14315.970638 15067.964865 16307.106633 17910.555064 15764.586926 14993.885246 12534.371158 10916.680823 10308.883722 9468.626379 9058.774563 6329.035211 9340.048365 14615.654871 15213.214369 16420.801930 15568.776118 16673.673522 13903.634211 15079.823109 13154.369687 8984.413969 9576.747475 8029.211188 8198.210702 3596.657943 15077.313346 16106.082511 17682.005867 16908.634164 16505.621162 15802.106313 9807.957939 14303.649592 10114.422404 10972.584398 14233.297073 10255.374950 4720.590896 15705.988654 17259.378281 18526.045318 18224.537998 18956.380362 8808.808666 12697.334870 12865.176970 14640.816853 14008.027615 13174.875273 12437.696372 7610.546813 16368.798033 18047.895016 18727.192560 16912.258870 16216.703882 15711.588396 8289.810888 16210.866843 12132.578494 11660.579897 8516.107435 7550.512336 8470.713844 16772.850901 18106.302205 18818.663948 19093.732216 17421.352988 16726.222068 5788.533169 15401.939778 4963.218765 10623.021163 12913.971841 7991.242781 6770.030554 16862.082965 17738.535145 18094.228393 16754.550089 14463.980185 15238.368063 15537.456660 17191.330955 9635.869418 13483.079285 6451.499993 6442.261476 5785.281292 16879.058726 17618.999351 18410.886095 17205.017131 18224.662974 16682.119441 16623.186139 16531.695385 10084.139027 9981.584696 5632.007151 6406.543885 6037.571132 16901.941621 17223.072615 17930.584677 18813.180918 17815.853933 9570.036973 12556.520979 17826.536249 20637.959447 13732.961846 12851.901176 10767.748980 5649.541846 16961.189549 17420.360279 18526.244078 17083.821209 14482.164588 9369.057176 13976.682827 15984.738232 10367.294909 10299.680227 9654.362476 7430.332604 9581.245836 17091.600639 17785.606515 18384.438981 19486.486276 18144.754400 17002.425574 13460.980524 15662.208340 14506.573280 10475.146674 5473.605568 10988.492839 6400.485927 17296.372661 17768.585503 18519.729541 19625.364753 16170.255366 16210.775592 12877.824357 11451.160888 12947.428679 13774.110928 12516.605944 7285.254601 4929.811654 17650.609341 18395.840711 19407.023399 16308.292003 19700.505627 13922.422394 16373.833017 16760.921893 13279.773455 15342.296392 16655.501856 7417.166453 9787.275160 18067.208637 18875.291903 19864.109552 20151.820037 18052.207674 19561.999695 16262.713969 16337.024476 11637.492452 12200.111247 9198.994486 8053.759323 8642.040018 18458.224778 18829.478008 19324.022246 19034.445856 18187.129318 17592.095743 15102.478828 17678.814565 13432.564818 9422.701071 7499.888918 9656.443596 4350.267038 18683.475561 18974.719295 19822.858628 19887.028112 19482.248269 18400.166422 18944.181071 12079.766234 14915.310390 10544.188220 5910.558668 10745.999814 6178.502869 18745.353349 18784.517071 18947.032506 18918.793613 17174.203995 17082.361869 11415.879021 8173.041177 8263.247349 14941.750891 9631.926067 4737.871765 9814.128678 18964.032244 20115.885219 21079.986711 19730.291333 15296.401883 18876.767068 15078.939282 9539.008483 13220.145168 10607.075906 7574.661505 4394.073202 5667.438658 19148.849029 20048.873383 20264.391151 19109.823745 18338.488411 16250.316064 17040.866981 15058.271314 12012.092403 11575.753344 10484.336613 11121.394239 6603.625525 19089.101509 19580.698032 20136.531381 19388.241673 18761.226516 20638.579940 14486.821140 14674.982413 15412.080239 15177.924429 10621.033154 9639.581628 9723.248565 18871.699085 19378.381082 20264.091877 19549.078696 16818.213030 19217.223843 16021.658363 16329.052030 16775.346960 7405.239538 10493.420286 13105.493947 8117.150644 18615.398646 18343.195593 17809.711402 19508.213686 18636.308250 15509.913902 15900.746344 15022.753018 12410.327949 12535.496105 8168.672519 6651.136227 3653.538145 18684.091213 18633.606813 17548.780333 20115.559113 19726.596391 16286.332856 15216.415348 18347.536156 12824.696025 10165.348698 5459.108640 4105.476041 7539.477783 18854.229322 18331.993614 17575.254518 17803.717698 20101.768692 20423.100386 14764.741926 16673.854196 15449.208903 15343.812031 7684.352502 9304.365015 6069.167024 19037.136370 18822.460292 18433.537148 19592.545809 15325.527694 15743.862603 14398.247177 15182.939461 13894.784328 12814.836991 5603.670369 11496.566739 1266.452121 19261.585426 19065.098856 19377.003085 20338.031043 18150.263497 14472.626613 16450.184945 15133.018053 14299.383410 10612.978389 9039.939105 13210.232937 8417.569645 19460.401022 19486.606886 19280.653657 19919.291884 19201.202213 17116.291806 13681.757289 11448.175153 12092.375484 15079.171115 8999.974738 6246.231464 8363.879346 19596.787112 20081.773197 20514.564879 20356.829452 20903.547607 17970.945578 18095.832799 17253.344561 11829.315912 11153.868741 6347.566383 12212.488667 11723.747235 19421.773437 19858.741389 19707.909958 20098.090184 16425.790496 18374.850772 16149.967394 15636.484225 9864.009968 7844.167461 11643.996889 10958.745627 14810.288245 19184.827579 19739.501090 21130.197351 19217.108201 18738.042185 16760.793373 13809.066654 13641.238556 11988.482342 9529.303450 11388.112770 7904.941868 4438.910448 19080.688922 19648.732304 20685.600494 18356.735409 16414.997384 18172.978722 16237.796568 14529.819926 15474.945518 12534.794813 10817.879347 11696.171839 10249.212963 18847.777808 18093.773364 16956.123279 19300.489413 17029.506732 18478.559050 13042.167147 19261.070465 10307.523496 7395.590748 10042.467703 11351.078913 6655.692215 18564.907674 17642.352516 18850.185226 20423.392153 17734.413638 19344.605370 10403.396171 14345.576582 15861.286913 11902.666218 11757.897835 5614.310159 7332.877695 18547.065891 18472.628246 20427.216709 18174.887868 18585.260198 16287.926431 16057.458663 11474.251507 8584.223973 10096.443586 10739.842372 13192.000024 11138.663965 18543.852622 18896.377827 20722.712506 18601.686065 17209.001750 19219.069705 12659.465397 17275.134301 13280.055938 10127.285590 11850.471810 10359.040529 5781.817304 18603.853853 17496.179846 17274.299463 19928.321074 20899.846858 15669.827319 16180.312306 10347.358910 17192.090156 9743.300858 7832.389994 13392.730017 8544.599657 18964.163654 18599.823131 18035.444079 18731.796766 15205.576766 16747.684511 8811.002288 11562.734092 7715.050316 7112.494125 9395.635437 18826.256776 11143.402608 19077.364189 18818.546999 18172.462859 18415.592911 19306.413139 17169.349721 14103.640898 9621.907772 14040.679385 13728.670497 10497.930453 12426.756288 2209.925990 18924.692216 18509.541465 17997.437268 18630.324097 17637.961115 12222.427530 10635.383675 15611.765610 13169.810820 14910.230910 5699.965231 9330.802406 6053.427838 18803.158286 17787.815492 16859.620133 18841.992992 19474.924170 18571.223824 17666.842021 13228.040940 12201.614078 16189.305183 7639.353948 12979.993889 9543.948168 18849.223962 18010.586311 18100.001010 18134.755061 18652.054184 18102.782911 13728.142826 15692.334788 14158.600452 7234.435378 9796.330442 4752.345672 12308.542747 19073.562048 18897.894827 18834.111910 18617.783412 16013.520218 11217.025499 13407.206741 14553.971009 9465.884909 14694.590504 11987.183290 10164.998749 9493.007187 19125.019190 18654.206221 17898.059987 18556.656204 18171.735363 14753.617371 18076.930189 16213.230629 15033.426148 16003.028886 14271.020920 13514.885417 12892.438419 19017.318709 19156.511791 17989.557662 16538.170624 18867.512683 16466.355439 13565.768698 15613.562161 15243.026233 15276.065423 16476.168803 12389.108208 5636.764763 18929.271352 19488.220757 18917.582857 18251.074707 13625.248467 19658.112573 14472.929375 16081.878587 12389.014661 13104.280969 13328.939215 12742.857093 11434.028629 18715.472463 17594.344576 15060.706289 18360.901194 16892.892587 11258.056934 18171.481934 16758.319684 14966.911871 13114.040496 16332.683802 11075.117856 -1170.669832 18484.607969 17019.414217 14819.442570 17464.636169 15698.168933 16145.540387 18008.022687 17865.747181 11003.843876 17087.918344 10412.766191 5446.472574 13039.945257 17936.504526 17314.894297 16834.620642 16242.954464 16834.601440 19822.492054 14766.409699 14023.120038 15123.002204 16952.017213 9924.306090 16035.386080 7544.595499 17205.293568 16506.452596 15672.850624 18530.016316 15140.695953 15363.659850 13752.785567 15812.286049 13331.244278 20586.927616 4717.765809 8979.328731 4242.437963 16989.227015 16919.169080 18800.620801 17903.130006 14681.108633 15248.692541 13627.127188 17692.972380 16192.082381 18761.977532 17538.300506 14479.891185 11869.023574 16932.565437 16984.677548 17665.658911 21074.679435 15594.884527 14488.148524 16004.800033 17227.658594 10182.555421 11404.131601 14243.116459 13612.072628 7768.396162 16811.897007 16523.081029 16798.926034 17273.056785 16889.661323 19220.705910 10471.763130 14799.944207 9572.047920 11826.802703 15070.282136 15344.716292 8872.191975 16907.984750 15823.560852 14825.791876 18970.862917 17368.872026 15278.923949 17201.511504 12940.786357 12024.006301 16528.328736 15010.509330 11453.851224 15099.023559 17117.216780 16411.428532 15696.935386 15655.554178 15286.438064 21712.608137 12822.038975 18002.952741 11211.581238 15952.154251 11720.664945 129.515133 5506.035291 17314.990661 16987.880006 15277.536949 13469.630108 15417.084308 16805.229509 18124.473906 9712.195918 13668.744325 12895.575556 13518.468143 5111.920803 11012.805402 17539.070324 17863.729124 17056.444798 15491.832119 15459.909172 17792.017781 18136.763635 14537.037710 15286.011052 14996.367312 14303.466052 10761.121654 10137.310855 17245.932588 17253.155822 16925.157321 14761.036801 16889.997520 15996.927971 16591.854512 8249.695866 15698.030620 16276.663143 14753.500361 13598.003109 8865.882558 16376.409212 15135.443253 15033.335378 19008.945627 16046.224610 15164.372198 14148.507554 12735.981629 13487.926532 12187.452715 14654.480003 12389.667189 8671.899867 15796.593947 16065.918214 17344.692419 14747.856852 15174.391159 15057.888192 17018.185016 14056.132311 15940.232001 15534.791903 13881.597174 14976.443953 9067.653642 15845.427686 17915.821623 20047.501175 14864.243758 16448.649395 17123.469896 15172.781019 17052.489503 14777.434579 17572.262704 15718.835165 11826.047594 7851.649553 15953.268043 17170.408943 18798.187272 14664.392807 14596.088702 18427.257688 15046.270530 17365.630408 17516.260480 18529.156490 13158.909024 15290.293938 10928.127211 15857.855896 14257.105572 11982.578236 16910.478599 16504.308638 19667.033407 19214.626491 15628.206441 16210.346324 16940.584582 16589.655919 16011.024520 15068.128495 16038.464310 14331.300355 12415.275011 16080.068834 19328.852374 17378.548865 14749.988381 15902.088441 16820.039693 14911.126550 15617.188131 14202.902539 16394.625193 16225.495577 15903.832273 15788.924871 20711.157578 18060.739250 17473.910907 18606.509787 16624.857342 17350.570789 15890.314858 17652.284092 15565.842282 16182.024531
</DataArray>
<DataArray type="Float64" Name="Velocity" NumberOfComponents="3" format="ascii">