<VTKFile type="PolyData">
<PolyData>
<Piece NumberOfPoints="2177" NumberOfVerts="2177" NumberOfLines="0" NumberOfStrips="0" NumberOfPolys="0">
<PointData>
<DataArray type="Float64" Name="Pressure" format="ascii">
 21388.017191 21251.926768 21068.756772 20982.191741 21025.340843 20955.724721 20531.131675 19737.814643 18782.990604 17854.590329 16946.833830 15954.386047 14779.995259 13397.829688 11876.118562 10353.105579 8924.414397 7587.275879 6311.406577 5193.750290 4293.998118 3545.884278 2835.552383 2107.226827 1384.533589 735.401176 177.935275 -328.862519 -826.205081 -1307.546369 -1729.885537 -2056.929419 -2275.073234 -2389.289470 -2415.416195 -2373.446906 -2282.974507 -2160.762427 -2019.921241 -1870.053042 -1717.838688 -1567.729316 -1422.568860 -1284.085544 -1153.250791 -1030.529268 -916.050092 -809.728952 -711.375347 -620.845518 -538.387243 -465.387038 -405.240476 -361.909122 -335.984336 -324.874846 21331.307531 21249.953691 21156.941272 21157.581750 21308.974546 21297.932161 20851.158309 19852.929781 18736.908184 17789.648793 16876.076708 15907.644444 14717.752805 13227.566115 11632.762891 10200.585256 8901.659181 7569.293474 6099.616383 4911.002333 4040.462227 3269.438874 2446.991158 1602.173352 850.724344 321.705726 -49.820816 -406.145048 -831.953095 -1302.313673 -1725.406505 -2053.811168 -2272.809603 -2387.627887 -2414.229683 -2372.642701 -2282.468087 -2160.477321 -2019.793158 -1870.031758 -1717.887216 -1567.821586 -1422.686997 -1284.217357 -1153.387499 -1030.662831 -916.167936 -809.799174 -711.300875 -620.325455 -536.528636 -460.418626 -395.670006 -351.870264 -328.022045 -318.639749 21346.790948 21528.504807 22628.893725 22476.706046 22723.743128 22618.401502 22216.183546 20317.933074 19079.585185 18030.952842 16549.023230 15650.893777 14504.533718 12545.561253 10861.683977 9808.944173 8796.862014 7497.774642 5038.373290 4595.492327 3812.223058 3023.024578 1620.325583 649.770769 -177.880282 -378.737032 -396.419228 -492.013914 -803.649147 -1291.946792 -1723.502472 -2054.280418 -2273.999776 -2388.863354 -2415.251514 -2373.385212 -2282.952146 -2160.754585 -2019.918573 -1870.052154 -1717.838375 -1567.729128 -1422.568506 -1284.084465 -1153.247277 -1030.517755 -916.012362 -809.605312 -710.970354 -619.517328 -534.072356 -450.496267 -373.093594 -332.420958 -314.372179 -308.230877 -327.446041 -308.776362 -301.018828 -284.682101 -278.003432 -274.168981 -242.833504 -241.227310 -239.726086 -208.782697 -208.351142 -207.826318 -179.403593 -179.313124 -179.111089 -153.797991 -153.804863 -153.708456 -131.450389 -131.483161 -131.422989 -111.984191 -112.021516 -111.975806 -95.080067 -95.115708 -95.077501 -80.452020 -80.484329 -80.451235 -67.839781 -67.868502 -67.839541 -57.006032 -57.031326 -57.005959 -47.734984 -47.757126 -47.734961 -39.831272 -39.850561 -39.831265 -33.118887 -33.135616 -33.118885 -27.440051 -27.454496 -27.440050 -22.654047 -22.666466 -22.654046 -18.636014 -18.646647 -18.636014 -15.275723 -15.284786 -15.275723 -12.476349 -12.484042 -12.476349 -10.153276 -10.159777 -10.153276 -8.232919 -8.238391 -8.232919 -6.651613 -6.656198 -6.651613 -5.354538 -5.358364 -5.354538 -4.294729 -4.297907 -4.294729 -3.432139 -3.434769 -3.432139 -2.732791 -2.734957 -2.732791 -2.167989 -2.169767 -2.167989 -1.713618 -1.715070 -1.713618 -1.349504 -1.350685 -1.349504 -1.058851 -1.059808 -1.058851 -0.827737 -0.828509 -0.827737 -0.644680 -0.645301 -0.644680 -0.500251 -0.500747 -0.500251 -0.386741 -0.387136 -0.386741 -0.297878 -0.298191 -0.297878 -0.228580 -0.228828 -0.228580 -0.174751 -0.174946 -0.174751 -0.133099 -0.133252 -0.133099 -0.100996 -0.101115 -0.100996 -0.076348 -0.076441 -0.076348 -0.057498 -0.057569 -0.057498 -0.043136 -0.043191 -0.043136 -0.032235 -0.032277 -0.032235 -0.023990 -0.024023 -0.023990 -0.017775 -0.017799 -0.017775 -0.013101 -0.013119 -0.013101 -0.009589 -0.009602 -0.009589 -0.006944 -0.006954 -0.006944 -0.004937 -0.004944 -0.004937 -0.003384 -0.003389 -0.003384 -0.002137 -0.002140 -0.002137 -0.001067 -0.001068 -0.001067 -0.000057 -0.000056 -0.000057 0.001009 0.001012 0.001009 0.002259 0.002264 0.002259 0.003841 0.003849 0.003841 0.005937 0.005949 0.005937 0.008780 0.008797 0.008780 0.012665 0.012688 0.012665 0.017972 0.018002 0.017972 0.025181 0.025221 0.025181 0.034901 0.034953 0.034901 0.047883 0.047950 0.047883 0.065045 0.065130 0.065045 0.087485 0.087591 0.087485 0.116481 0.116610 0.116481 0.153478 0.153633 0.153478 0.200051 0.200233 0.200051 0.257819 0.258027 0.257819 0.328321 0.328550 0.328321 0.412803 0.413045 0.412803 0.511931 0.512170 0.511931 0.625363 0.625574 0.625363 0.751190 0.751337 0.751190 0.885192 0.885221 0.885192 1.019870 1.019712 1.019870 1.143251 1.142808 1.143251 1.237394 1.236543 1.237394 1.276602 1.275183 1.276602 1.225306 1.223121 1.225306 1.035610 1.032415 1.035610 0.644511 0.640011 0.644511 -0.029187 -0.035341 -0.029187 -1.088220 -1.096435 -1.088219 -2.660386 -2.671128 -2.660385 -4.902164 -4.915956 -4.902159 -8.002270 -8.019690 -8.002256 -12.185013 -12.206681 -12.184968 -17.713246 -17.739794 -17.713098 -24.890712 -24.922719 -24.890230 -34.063616 -34.101407 -34.062044 -45.621343 -45.664369 -45.616214 -59.996710 -60.041588 -59.979976 -77.667624 -77.701734 -77.613034 -99.166844 -99.147275 -98.988787 -125.123334 -124.905610 -124.542585 -156.410908 -155.499930 -154.518545 -194.851760 -191.330463 -188.654593 -242.976000 -229.739004 -223.382591 -271.221449 -248.991966 -238.897127 9551.316729 9359.425921 8925.554184 8809.046914 7930.955293 8251.521958 7004.179012 6415.670887 6699.182034 5051.745593 3115.124128 1773.971638 1288.943335 1188.193969 888.177958 515.712951 134.166351 -230.184230 -569.652024 -882.439967 -1168.328654 -1427.681475 -1661.130916 -1869.273308 -2052.413197 -2210.468937 -2343.051735 -2449.654619 -2529.870687 -2583.579833 -2611.073436 -2613.111542 -2590.922111 -2546.157936 -2480.826992 -2397.209331 -2297.770104 -2185.075141 -2061.713042 -1930.225999 -1793.050505 -1652.468367 -1510.568056 -1369.216096 -1230.037875 -1094.406692 -963.438194 -837.982429 -718.589579 -605.366472 -497.527281 -389.808633 -298.364901 -260.222895 -243.677622 -237.204367 9345.451872 9170.191384 8720.050914 7571.713608 6833.823117 7571.709518 7340.087802 6335.993502 5379.895388 4171.313650 2968.842131 2138.896014 1633.783097 1277.915793 912.933870 522.126726 136.051593 -229.390421 -569.128652 -881.990795 -1167.907056 -1427.276067 -1660.735693 -1868.881135 -2052.016652 -2210.062656 -2342.633976 -2449.227545 -2529.439682 -2583.152363 -2610.657855 -2612.716087 -2590.554190 -2545.823679 -2480.531039 -2396.954776 -2297.558557 -2184.906858 -2061.587088 -1930.140437 -1793.002588 -1652.454745 -1510.585011 -1369.259890 -1230.105501 -1094.497955 -963.562207 -838.178677 -718.997404 -606.465627 -500.912902 -403.225277 -321.540739 -274.846524 -252.122047 -243.269687 9182.881729 9026.618565 8718.568719 8188.613841 7757.406354 7458.664816 6787.696667 5858.340939 4887.648417 3913.940926 3024.114502 2321.556967 1792.120865 1352.216158 935.765870 527.977777 137.232817 -229.378333 -569.415381 -882.362262 -1168.301452 -1427.671836 -1661.127572 -1869.272191 -2052.412840 -2210.468829 -2343.051704 -2449.654611 -2529.870684 -2583.579832 -2611.073436 -2613.111542 -2590.922111 -2546.157936 -2480.826992 -2397.209331 -2297.770104 -2185.075143 -2061.713046 -1930.226012 -1793.050549 -1652.468512 -1510.568531 -1369.217651 -1230.042968 -1094.423364 -963.492762 -838.161004 -719.173683 -607.280220 -503.717633 -411.536797 -336.954059 -286.897970 -259.236962 -247.943912 21376.244544 21970.979553 24295.069579 23187.728304 23251.924042 23506.397362 24217.207456 20778.356046 19795.377407 18712.137903 16513.068583 15700.853577 14790.000464 12353.905426 10137.960474 9635.791343 8251.328055 7601.041348 3951.706428 4247.143654 3488.589555 3063.581952 1176.261245 -724.789200 -1718.341081 -1164.606326 -555.139444 -511.041627 21445.369302 22127.874415 24180.942508 21772.879848 19274.630500 24373.822796 19125.639163 23486.388720 22856.018829 21057.448195 20566.154965 23346.600987 23938.084677 22088.827991 19859.577286 19382.083572 22677.504124 22388.351358 21095.073145 22040.789793 19598.109978 22540.792143 20799.447740 20342.127856 18317.103330 19673.987874 7011.389903 9053.474367 21623.864458 22667.859018 25794.504381 21818.783000 22315.028093 23075.189676 20227.842872 20792.615310 20813.899323 13871.905386 21033.395454 19134.793052 22406.071139 21358.777471 23908.084683 24864.722033 25170.199723 12720.530068 19346.990805 21253.251390 20054.326564 25043.163438 24325.862533 20686.580124 15197.266007 8403.259620 17836.575461 13258.359466 21867.007007 23213.260963 26573.500913 19830.706069 17887.165528 19979.718125 17721.768527 14510.598884 24263.940476 18775.947529 21505.156441 23744.120954 24263.758713 15692.257238 23664.877936 7911.081041 14643.945955 4338.435520 22105.898386 17976.134491 16046.072849 23650.477603 22761.539843 17131.492804 18164.090488 18689.196306 15482.505622 6949.671029 22119.637845 23779.684567 27285.885320 22447.516884 20142.294973 22029.665625 23488.595463 23969.146873 23652.862875 21078.453696 23938.035852 9320.569092 15042.258428 12868.598812 17905.843320 18872.311346 18041.134642 23393.350751 19874.078228 20559.521509 11571.186627 25852.640965 13585.034069 6091.118339 7235.324713 6257.912622 17731.310551 5803.397514 22462.699905 24423.028331 28591.918391 21114.576923 20290.574811 15642.403571 26165.586128 22651.024199 23130.682768 12987.713054 11279.396021 18322.054409 12994.272713 13882.941779 13388.148001 15662.967248 12174.804945 5542.327600 6567.544999 3565.105546 15366.943624 8571.907573 23078.356645 11070.444550 12324.378249 10098.127583 7187.221136 5101.475002 22691.290603 23756.436076 27157.351500 21997.743617 19103.493589 12131.069824 22019.045165 12651.577160 20433.057916 16682.583290 22438.875795 23328.790405 15649.607448 9462.696832 12159.393982 13416.434857 16580.347665 6865.102388 18575.809954 16572.235149 21599.057885 8401.127348 3976.311608 9341.574806 4492.793045 5497.796116 5629.840292 3319.825805 22712.286034 22832.393781 25130.121051 16869.843052 25436.007249 24691.458741 21529.786700 8162.551345 22166.424056 8368.207136 10066.162404 11140.212906 18664.749487 18516.987786 20197.601960 15309.299968 10815.193429 16386.772265 11762.556614 12151.364463 10426.070766 15100.782153 5642.354774 14718.774633 19113.727608 7491.628605 5800.315279 1828.587376 22800.916042 21790.058596 21416.172752 21714.729039 20804.272160 23264.973352 18932.378935 21750.770542 24629.309469 23701.687611 23099.343041 20907.962789 19237.135773 12378.155457 8735.248583 21946.086652 14254.988866 16722.090488 2690.767148 9181.834058 12144.591736 9934.512203 7987.213452 5680.259703 13272.111031 1949.298304 12704.967852 6439.505011 23131.334838 22153.090459 21780.632130 25301.889727 23969.575019 24105.171919 20384.131736 18807.027835 17050.544766 15425.006917 13336.248744 8446.330043 17841.489956 17226.493629 9704.525166 13149.549397 8107.816259 16276.092029 7044.549366 19899.879142 8990.014741 5039.930454 9552.304085 14691.998345 5917.405432 4418.595744 4153.247021 7892.211147 23398.860798 23835.633129 24186.809409 24098.915324 23621.734677 22733.605484 16953.785145 25792.566496 8004.467795 24453.272832 12957.564626 17796.368074 7811.337327 7049.139410 15255.731710 8720.902160 8557.190610 13136.922048 13796.197399 10950.460660 10192.734540 9770.188351 11330.696663 11621.244913 6280.773826 9762.291656 11687.071307 6106.944113 23392.645591 23646.908269 23940.275216 25096.253431 20663.096329 20859.078606 18722.079257 22732.202102 14797.344542 16381.738479 9952.243553 13452.560851 15500.847613 18599.911348 9490.487677 10960.460349 15929.861861 5355.727121 6935.289316 7687.231270 15433.892899 14316.406433 6698.284085 11309.923697 8463.461609 10159.456599 6081.551916 2533.108536 23429.580129 22801.472236 21965.844864 22472.531104 24562.512254 18760.748845 19663.304389 18024.214128 13321.527179 18804.153819 15340.026602 17831.253659 16678.657921 3024.862448 12079.783081 2713.084562 13057.867747 8804.198724 7314.242479 16688.248609 10489.973662 6068.346993 13349.175215 10698.202357 10941.715106 2083.141699 6964.914163 11876.865649 23535.422565 23107.013663 21931.013829 23215.827252 19594.319514 20199.365666 20442.264413 19761.527188 15125.071975 22213.598639 12451.424990 8057.200023 6890.193826 5279.980117 3896.978043 7685.295181 11250.682695 4245.268563 2860.490756 7413.632338 4483.636105 3176.050361 3705.221935 14174.834093 4394.892966 6539.830393 12515.041769 1038.489868 23407.022894 23211.677882 22359.748629 22805.571210 21895.351777 21713.618877 21581.971513 21283.587300 22017.006188 14681.710151 9622.680662 9754.839079 7614.065325 1732.661266 7214.172740 6776.544255 6753.878007 7735.400630 4675.890525 3671.927513 6064.972264 1794.789521 3924.260718 5773.933238 9341.094575 3005.055610 4023.315934 7342.793099 23044.835155 22806.552150 22778.755136 21495.587900 19989.663092 20243.080068 20728.205066 19422.565454 13453.729383 14671.088874 12280.887710 8606.995307 3388.715513 22701.539319 22045.663080 23417.580654 21510.448147 20363.637959 20989.753721 20460.630705 18717.905517 19445.539155 8394.790071 2309.508473 5030.984131 3349.681442 22695.651098 22536.617141 24338.731394 21541.909413 19700.512811 13559.099540 5266.170020 17035.922272 10102.275794 6133.198846 6230.282288 7746.162260 9056.542645 22863.365178 23067.099384 24113.303380 20860.087410 19428.175141 19098.504000 14278.401959 13950.325788 6691.805364 8142.651416 9347.489298 1144.736289 8112.932560 22934.432503 22887.575733 23436.657658 21096.970329 18904.785386 16867.143825 14145.966724 9474.248545 7466.600296 10282.485168 12541.406455 3124.986440 -77.376165 22870.897228 22494.731791 22106.246023 18961.736186 19383.946483 19797.945991 11927.430531 15415.134549 7830.909444 6161.865976 10118.266468 3709.801497 4348.187374 22635.560166 22220.900312 21252.923134 20824.557970 17328.798120 18068.985837 12888.561415 9988.066852 7682.093854 13713.044869 11224.543354 9647.896985 3837.125521 22225.737583 22265.926428 21716.536748 20980.562377 17793.729519 7980.556829 8860.282034 7366.575733 5648.916082 10897.553153 7454.804350 6746.398772 2865.940086 21650.902696 21918.218893 21520.516975 17822.123388 15763.382885 9478.470257 12279.122192 12987.307261 10059.939611 10080.353192 6864.733560 5990.190510 2062.156838 21135.542146 21638.716594 22365.097291 20349.239695 17166.910233 16625.994476 17754.960744 9397.133052 8873.114180 7276.427696 7398.957827 7256.913701 12721.691991 20840.504504 21507.472027 22748.958852 19775.030154 14082.791997 16482.007544 9348.144496 9447.051739 9694.347153 12829.405425 8016.490495 6108.628007 6553.272529 20581.652743 21144.135190 21392.532149 18940.112066 20110.792817 16203.051779 14281.020470 14658.072203 8925.249598 10557.420966 10308.946856 3089.737268 5219.857858 20278.506164 20091.130732 19954.465886 21741.781843 15826.077351 17700.793798 13327.985373 13769.224629 7240.878350 10554.940511 11549.160677 4382.306666 2594.456644 20078.658073 19896.113149 20265.529064 17782.945734 15375.763109 15170.136512 15798.164215 14390.531588 6231.552557 15089.628284 7287.627642 5760.032540 4285.617793 19874.692352 20179.864520 20638.605773 19636.659581 14938.450245 16898.066299 19021.892193 18701.617534 11357.337603 14582.026039 3141.734037 5327.509096 4240.653745 19542.772321 19856.978097 19858.319083 16998.763247 16160.913392 19244.622013 18917.227721 16344.094700 11104.310976 13364.897138 7190.203338 3538.228737 3736.649119 19158.198350 19216.951195 18954.228104 13587.494135 18171.352134 18314.105891 12781.294709 16199.786916 5996.692594 7092.159573 3283.103749 3935.833888 3504.904746 18824.949028 17863.491745 16190.353401 19403.782100 18134.397647 15600.446452 13030.716985 12177.439452 9127.705790 15117.489928 4144.766024 4136.590189 7413.512795 18683.872224 17979.589671 17218.829963 18766.658687 18417.997864 18463.156826 12299.030709 12801.291540 12424.069695 5777.717508 8567.747793 8791.138737 3426.191502 18515.751404 18500.734758 18148.740972 17845.210655 19948.153150 16419.932176 15443.828585 7169.500998 9599.568049 11092.369239 10848.955882 3845.084271 3364.123115 18193.933506 18416.603215 18096.400107 18627.605080 17787.871852 20200.112356 14999.708041 9318.385161 14830.074055 6853.214766 4317.314711 2670.896609 3130.090551 17803.566233 18015.897267 17386.254727 19377.064088 18976.847472 16386.599404 9017.184383 8977.892647 9515.375828 7274.554593 6868.350601 5571.289832 3672.818840 17469.794014 18051.865493 18228.060996 19775.704113 19220.790265 16093.835197 13679.843751 8265.225301 10589.397676 5592.010686 4225.460257 3738.479432 4884.177805 17232.137439 17825.262940 17833.630912 17793.355452 18172.727481 11538.082756 12334.309378 9533.272171 5831.789902 6471.479925 3304.745858 4228.463227 2410.886764 16979.204240 17294.717833 16778.596839 16340.475869 17641.343801 12879.006330 11548.235403 13225.808109 7098.804958 7719.147352 7282.960274 5818.882888 2101.482492 16501.171680 16565.803592 16413.473655 18549.877123 17808.581780 7237.409226 10784.114683 9347.273449 11256.319772 8768.443173 5963.340546 7122.285866 4387.226798 15949.039164 16228.113708 16571.732061 17371.387359 16459.424865 13536.462282 3775.688340 13811.424307 7411.477673 10158.476923 3406.703499 3336.422808 2010.615269 15626.685277 16734.923540 18833.152660 17387.530769 16345.162472 16674.052095 5474.748671 12376.385751 4983.403910 7001.557341 7597.327919 3388.246579 3223.712449 15626.828536 17418.359629 19291.514520 15705.574251 14980.655242 9157.839818 11999.348770 12833.150107 8123.366786 7151.728611 5124.862596 3521.765629 2396.975777 15881.086922 17813.836040 19053.983668 14959.542621 15173.700406 16087.894429 15190.113497 11947.393384 6000.578019 6845.233628 4136.964819 6397.784641 2566.632105 16009.366859 16864.742671 16784.110479 16570.297662 14928.460416 7590.724725 9669.982410 14192.809494 15182.278912 8051.427696 7566.762236 7054.790833 3941.160966 16005.779410 16139.161701 16130.453502 16048.331246 12805.750837 7759.930440 9524.178399 11972.139549 5481.095629 5717.360467 5121.952462 5411.868241 8133.273559 16068.285045 15560.745217 15073.013997 17191.005119 13995.765244 13983.514209 11125.547759 10453.098041 8617.919267 5766.836107 3964.415117 6382.288032 5061.570884 16160.146845 15855.724741 15515.286488 15331.051253 12430.164119 15258.055477 11377.832540 10423.334870 9693.395045 10525.465237 8956.348505 4641.409558 4367.002329 16258.739173 16076.021857 16407.484381 14770.409139 14684.587378 10502.246039 11210.818414 11869.323013 9020.010054 8559.667781 9687.595889 3089.145541 4150.207205 16422.987124 15981.739571 15051.970171 16709.787035 13118.006442 13535.655695 15146.772264 10391.650961 6338.006488 5756.412027 6252.626136 5255.702781 4555.167524 16531.788407 15735.442372 14749.008631 15690.913818 16411.957199 13713.573488 12814.205248 14160.778745 8380.634282 5859.839250 7970.525989 4535.193060 3803.551282 16509.271237 16210.392595 15785.764348 15604.098020 15804.991353 12167.679024 17916.153126 8316.182225 5907.672117 7904.255018 3797.565683 5939.572424 5159.495177 16218.621456 16429.609235 16843.005771 16135.022630 15007.724068 11651.349690 7756.111307 8627.820403 5894.095456 8842.431104 3579.562951 2906.692243 4076.277993 15837.409992 16146.272609 17405.005962 13751.668543 13172.734150 15971.796514 11727.760955 5271.468362 10101.294438 5190.041554 3135.278162 2661.110117 2183.453190 15794.120999 15981.391589 16518.336250 15410.658663 13962.047501 13285.456950 12678.232148 10401.681956 9920.695540 6660.649225 6208.244702 6051.939964 4964.991865 16036.013754 15414.420691 14603.245809 15688.451298 13706.485968 13783.920590 9979.401880 10101.574335 12676.872591 8425.189925 10513.719208 5568.921758 5940.757012 16103.665857 15251.460760 13760.182561 16040.004849 15769.453510 15754.123593 13385.912751 11981.045512 11216.186111 3944.658951 6483.597690 8408.206648 4585.296496 15880.288688 16209.829342 16471.916179 15320.547208 14699.185777 13862.841508 11046.566364 8638.463712 6548.334625 8508.598892 3138.994504 4475.674243 3335.228367 15530.190556 16384.874557 17370.372624 16122.995524 16583.877422 12241.132394 6334.242021 10720.915883 9721.002671 6266.082541 4349.430301 2634.683971 4768.428648 15233.355299 15658.004493 16288.867925 15463.391667 15529.814593 13912.692957 9973.385521 9477.587223 9625.551772 8776.651346 3472.919592 3771.070677 2709.813090 15182.762290 15660.448164 16533.465796 14194.095107 13664.400724 10783.026446 7711.942758 10141.856727 8862.114867 7380.228497 6501.675283 6210.630933 603.298901 15297.847694 15747.612604 16243.894075 15993.167076 13252.673725 11282.888452 11882.150568 9098.650855 5885.742298 4660.000745 5345.025670 6753.693398 8266.227195 15260.038159 15931.143423 16159.359024 15415.746824 13951.067407 13646.692104 7840.891030 8091.005109 9063.374077 10460.262701 3291.839657 1552.082826 4463.818677 14983.884156 15745.571666 16785.380161 16614.598993 15886.919771 13335.697001 13621.923964 10510.200351 9620.160599 9649.547517 4117.854739 6382.654012 5900.785720 14725.587292 14557.798400 15200.536919 15000.123117 13568.676503 13350.428249 13081.424484 10817.116344 5577.891720 3956.647952 7455.872996 5998.146919 8582.023236 14721.177399 13837.061348 13574.944184 15023.605662 14069.560808 12109.283568 9917.239745 9441.465529 12074.927883 9286.728969 6605.535930 3639.407503 5180.491722 14865.179368 13940.330808 13707.982381 15421.900119 16637.668404 14869.997878 11939.197457 9578.297442 11450.875049 6110.229950 6922.012237 8063.141592 3671.872555 14975.852944 14334.334093 13948.587441 12536.799367 13461.121832 14957.333888 6582.632957 12310.926475 8858.065846 3813.388041 8963.631562 3476.446459 7087.766359 15050.614277 15069.479951 15047.270273 15047.461075 13057.469001 14987.969333 10431.463273 11639.044620 11230.412787 8002.971058 9025.231373 8091.892288 5588.768941 14986.831656 15396.467191 15292.314879 13114.349736 15928.182673 14549.177432 12303.875923 9752.360832 6095.865512 9049.020369 5929.798828 10370.343876 3935.703982 14795.579204 15212.577903 15183.053777 15149.876069 13408.210931 11922.371753 10820.421638 11764.934502 5450.836787 6188.451027 9253.622263 6913.485125 5494.365191 14560.647787 14877.701393 14958.545456 15411.702968 12840.448599 12021.568071 14435.027528 9598.535457 8431.003441 6050.274628 4476.737542 5545.530119 5656.320620 14198.542394 14243.724577 14345.949161 15064.059750 12479.209621 13436.409420 7615.553796 8552.483930 5507.899356 5488.278952 4528.681114 9424.645296 4503.920049 13805.090009 13651.096276 13653.519199 12332.462818 14337.529145 12492.893654 11640.945157 7675.933183 10799.603360 8690.136491 4776.207106 8064.013050 5268.521365 13604.445319 13997.883351 14792.111340 15508.039515 13300.764209 10317.072600 10503.477226 11577.301729 11506.265122 10300.344321 7234.806569 4177.474045 2663.189241 13470.790052 13798.890938 14427.493760 13391.863146 13754.656129 14461.152521 11466.718912 8688.660284 8618.864826 10406.203314 6869.363569 3919.069337 3282.763326 13342.498052 13463.195395 13727.237821 14882.430724 14684.523756 13090.979897 12283.260879 9022.034550 10323.092139 6243.767957 6449.708455 4234.705085 7267.153650 13294.896387 13525.734835 14045.370237 13683.569704 13020.032734 12046.566077 10458.844795 11133.071211 8830.183696 10889.476893 6395.373389 7231.659687 5679.775087 13286.786869 13551.016901 13966.718398 14900.462728 12712.740535 12322.457907 14047.532645 11080.704692 9767.488340 11366.603770 7845.893812 9078.666746 4414.908750 13081.703665 13479.755106 13842.067295 12359.070814 13118.821815 15995.801668 9681.405536 13301.763031 9232.037500 10595.510398 9293.279442 7164.626136 1970.684072 12530.784299 12695.709714 12649.235610 14872.474413 10473.731590 11467.237857 8853.409354 10325.123942 8424.187784 8635.518664 8595.663279 5508.295922 6958.294418 11986.142664 12366.782014 12732.133345 15487.787965 13117.275781 11428.568908 13608.041571 10688.267969 9058.635124 6922.523716 8109.065114 6886.452008 1368.252607 11701.528344 12284.626660 12846.425723 14655.316972 12203.468920 13194.623152 7854.869810 9596.926030 8506.090296 9418.152162 5379.340524 6482.804020 6099.876844 11500.046340 12036.373583 12223.614192 13108.416152 13102.294300 13087.784991 8871.414391 6886.156880 6448.980484 7157.875196 5914.450992 9186.703056 4952.884798 11148.863687 11600.584736 11957.440217 13271.997103 11158.599369 9291.680789 9949.105838 9159.526488 9994.814177 8988.023207 5779.261671 6649.709477 4640.722103 10759.527489 11079.226509 11439.944971 14158.427759 12393.267649 11317.992131 10785.078549 10169.264221 7421.060130 10179.153250 7813.089845 10828.899682 6482.442277 10454.417540 10339.909762 10216.361090 10515.548499 10640.511360 10482.413871 9514.867350 6141.201643 5511.945534 3715.053761 9297.734001 7567.091298 3416.443365 10274.652186 10675.731802 10681.582695 11046.024739 12308.638662 9259.347421 4029.420707 9789.412978 4107.386488 3590.595573 6939.006788 8613.374561 3826.766573 10301.180659 11570.201917 11362.952043 13850.927406 8348.659714 7039.416898 10539.348657 4736.439506 7647.035134 5092.483763 6657.782349 6243.366249 6145.365622 10266.469733 11819.886392 11824.911321 11399.066543 7140.838947 9436.569053 7199.342300 7285.507966 4762.205980 5804.037537 4454.632842 2782.302609 1373.975057 9887.333947 10106.569429 10043.795134 8990.042667 6977.269761 9895.860810 10206.419293 5284.706049 9244.042194 5456.195890 4203.288901 5321.968211 2294.391081 9900.072577 9942.027802 10052.554095 11061.231821 9190.229712 8666.178483 7099.456730 8245.748801 9052.446740 6614.797656 7372.627192 3809.800325 8751.244201 10671.961194 12573.161695 13781.927052 9188.831034 8530.660693 8685.871514 9283.340002 5801.732173 9034.250788 5560.281608 6392.434839 4316.198109 3208.033750 11100.915333 13144.328791 13342.226306 13094.871859 8835.437503 7849.149965 8344.682016 8101.451819 11564.598372 1843.002891 9442.798366 8381.957073 3917.422866 10737.679044 10228.621320 8274.101111 8392.406183 9458.409898 6893.706156 9596.582574 5609.509759 9547.033464 9748.619053 11181.230879 8581.968738 6457.510735 10418.906116 9337.887380 8090.800500 11055.878576 8331.860742 9742.339472 9787.790155 9862.422083 8006.022152 9864.932641 10509.512478 5770.270252 5441.555456 10365.194370 10129.672969 9820.987940 10359.219566 7384.521107 10526.845771 9558.409870 9898.547400 9279.923846 9006.796804 9182.781925 7494.942901 3315.616637 10331.741237 10984.466709 11821.434205 10229.823803 9912.854272 8300.733745 10319.370435 10824.916201 10581.882889 8665.701114 10207.456683 9057.227971 11279.818999 9922.296502 10164.997180 10276.168777 7806.534125 8429.584130 10918.282664 9386.652406 8135.292714 10654.557808 11074.118717 13783.751000 10857.675384 9986.393610 9551.316729 9359.425921 8925.554184 10295.074940 12694.086241 11412.326242 12245.888616 13568.367331 14617.464263 12861.541560 8846.453033 9541.545036 11097.564064
</DataArray>
<DataArray type="Float64" Name="Velocity" NumberOfComponents="3" format="ascii">