<VTKFile type="PolyData">
<PolyData>
<Piece NumberOfPoints="2177" NumberOfVerts="2177" NumberOfLines="0" NumberOfStrips="0" NumberOfPolys="0">
<PointData>
<DataArray type="Float64" Name="Pressure" format="ascii">
 13162.799680 13062.505772 12799.777322 12351.596054 11757.594901 11020.646370 10123.208097 9113.063751 8000.567205 6716.788709 5309.089367 3908.760800 2447.756579 776.213187 -817.325520 -1915.557403 -2555.918418 -3110.998607 -4023.398024 -5194.804753 -5938.783809 -6133.929305 -6071.861107 -5829.085726 -5447.108976 -5013.039596 -4587.992357 -4191.823510 -3820.700447 -3474.731524 -3161.730450 -2882.577356 -2631.347494 -2400.896947 -2185.583913 -1981.901433 -1788.198488 -1604.122027 -1430.058713 -1266.688599 -1114.679631 -974.510479 -846.392146 -730.256062 -625.781008 -532.438619 -449.544877 -376.312378 -311.907381 -255.534116 -206.615068 -165.167777 -132.226388 -109.096022 -95.461431 -89.630894 13296.567425 13194.046667 12850.452925 12182.876949 11383.312905 10527.086542 9535.141277 8542.346222 7567.371831 6267.414437 4735.575565 3499.534157 2433.112909 563.799597 -1404.950732 -2307.536608 -2650.315177 -3121.695990 -3976.291868 -5350.516433 -6730.926929 -6678.134761 -6238.785999 -5888.845419 -5478.393066 -5037.146847 -4617.448797 -4234.096447 -3857.106722 -3491.487651 -3168.046275 -2884.870006 -2632.255267 -2401.319550 -2185.830727 -1982.086710 -1788.368427 -1604.295695 -1430.242503 -1266.882433 -1114.880244 -974.713364 -846.592684 -730.450078 -625.964839 -532.608519 -449.694840 -376.427122 -311.940006 -255.338083 -205.753264 -162.788942 -127.680631 -104.553342 -92.087941 -87.131486 13521.185081 13496.547397 13400.686407 12371.149784 11083.079140 9713.127772 8200.743364 7140.038446 6702.424997 5235.268659 3245.243520 2448.499816 3135.278567 351.349724 -2998.470004 -3043.723684 -2785.898683 -2884.172208 -3137.902826 -5313.425353 -8007.225077 -7392.596056 -6455.357093 -5961.757629 -5514.685294 -5065.516321 -4658.220769 -4316.885899 -3939.920060 -3514.765343 -3173.774112 -2886.244317 -2632.457719 -2401.232160 -2185.684810 -1981.931710 -1788.207543 -1604.124726 -1430.059514 -1266.688832 -1114.679687 -974.510454 -846.392000 -730.255563 -625.779355 -532.433159 -449.526861 -376.252944 -311.711424 -254.887248 -204.501380 -157.803850 -116.671659 -95.670481 -86.344984 -82.987494 -93.992507 -84.503702 -80.389337 -75.290119 -71.952957 -69.929188 -58.592921 -57.789767 -57.019714 -46.235454 -46.022529 -45.754781 -36.460568 -36.416385 -36.314638 -28.640530 -28.642860 -28.596192 -22.380917 -22.394446 -22.367450 -17.389757 -17.404299 -17.385667 -13.431812 -13.444668 -13.430570 -10.312321 -10.323003 -10.311944 -7.869247 -7.877897 -7.869133 -5.968249 -5.975156 -5.968215 -4.498662 -4.504123 -4.498651 -3.369999 -3.374283 -3.369996 -2.508852 -2.512188 -2.508851 -1.856133 -1.858711 -1.856132 -1.364653 -1.366632 -1.364653 -0.997026 -0.998534 -0.997026 -0.723860 -0.725000 -0.723860 -0.522226 -0.523083 -0.522226 -0.374381 -0.375020 -0.374381 -0.266695 -0.267168 -0.266695 -0.188780 -0.189128 -0.188780 -0.132781 -0.133035 -0.132781 -0.092800 -0.092984 -0.092800 -0.064446 -0.064578 -0.064446 -0.044470 -0.044565 -0.044470 -0.030491 -0.030558 -0.030491 -0.020773 -0.020820 -0.020773 -0.014062 -0.014095 -0.014062 -0.009459 -0.009482 -0.009459 -0.006322 -0.006338 -0.006322 -0.004198 -0.004209 -0.004198 -0.002770 -0.002778 -0.002770 -0.001816 -0.001821 -0.001816 -0.001183 -0.001187 -0.001183 -0.000766 -0.000768 -0.000766 -0.000493 -0.000494 -0.000493 -0.000315 -0.000316 -0.000315 -0.000200 -0.000201 -0.000200 -0.000126 -0.000127 -0.000126 -0.000079 -0.000079 -0.000079 -0.000049 -0.000049 -0.000049 -0.000031 -0.000031 -0.000031 -0.000019 -0.000019 -0.000019 -0.000011 -0.000012 -0.000011 -0.000007 -0.000007 -0.000007 -0.000004 -0.000004 -0.000004 -0.000003 -0.000003 -0.000003 -0.000002 -0.000002 -0.000002 -0.000001 -0.000001 -0.000001 -0.000001 -0.000001 -0.000001 -0.000000 -0.000000 -0.000000 -0.000000 -0.000000 -0.000000 -0.000000 -0.000000 -0.000000 -0.000000 -0.000000 -0.000000 -0.000000 -0.000000 -0.000000 -0.000000 -0.000000 -0.000000 -0.000000 -0.000000 -0.000000 -0.000000 -0.000000 -0.000000 -0.000000 -0.000000 -0.000000 -0.000000 -0.000000 -0.000000 -0.000001 -0.000001 -0.000001 -0.000001 -0.000001 -0.000001 -0.000002 -0.000002 -0.000002 -0.000003 -0.000003 -0.000003 -0.000004 -0.000004 -0.000004 -0.000007 -0.000007 -0.000007 -0.000011 -0.000011 -0.000011 -0.000018 -0.000018 -0.000018 -0.000029 -0.000029 -0.000029 -0.000047 -0.000047 -0.000047 -0.000074 -0.000074 -0.000074 -0.000115 -0.000115 -0.000115 -0.000177 -0.000177 -0.000177 -0.000266 -0.000266 -0.000266 -0.000388 -0.000388 -0.000388 -0.000541 -0.000541 -0.000541 -0.000695 -0.000694 -0.000695 -0.000758 -0.000754 -0.000758 -0.000486 -0.000474 -0.000486 0.000688 0.000717 0.000688 0.003987 0.004053 0.003987 0.011921 0.012058 0.011920 0.029395 0.029669 0.029394 0.065615 0.066140 0.065615 0.137162 0.138123 0.137160 0.272697 0.274389 0.272689 0.519712 0.522572 0.519688 0.953456 0.958089 0.953384 1.687519 1.694684 1.687304 2.884397 2.894900 2.883764 4.762667 4.777057 4.760823 7.595399 7.613226 7.590080 11.692714 11.710808 11.677566 17.361222 17.369536 17.318702 24.836014 24.807076 24.718822 34.187943 34.049009 33.872782 45.266467 44.788585 44.444024 57.017343 55.641534 55.041723 62.339101 60.632424 59.671231 18553.481904 19409.214505 19936.018910 18855.589755 20205.410220 20733.447618 25531.462107 25615.069641 16687.577210 15866.622508 14243.409063 13087.406701 11404.968278 11661.953454 20757.657563 23412.264574 11125.388232 -3161.249534 -191.719308 5944.968427 16209.047758 4267.208618 -6098.599621 2558.448262 -8630.351831 -8605.607547 -7022.247467 -6286.492644 -5329.959634 203.919835 -346.967566 -6722.771378 -4828.237661 -4067.342313 -3461.057622 -3015.835966 -2646.884082 -2321.367144 -2019.152344 -1730.266000 -1452.254217 -1187.462989 -940.573834 -716.620808 -519.726472 -352.528518 -216.084490 -109.992241 -32.537412 19.191817 49.175094 62.233221 63.461024 61.594704 60.119269 59.550048 18372.267225 18910.617198 19083.381052 20116.401598 21907.056263 20063.099792 20355.674145 21080.863014 16917.896914 15837.373873 16144.486048 15221.433944 14081.407596 13311.626225 14552.003871 15564.566376 12385.281439 6855.033040 5088.017438 5406.487928 6748.020639 4648.886238 77.335424 -1717.793513 -2980.797847 -4717.704329 -5484.048575 -5498.769369 -5106.971394 -4103.687688 -3013.605016 -3063.205297 -3440.977610 -3351.348141 -3077.536710 -2798.221606 -2520.898194 -2248.072117 -1976.621489 -1705.801338 -1438.399040 -1179.815202 -936.529908 -714.642195 -518.907595 -352.339739 -216.216636 -110.260007 -32.815147 19.023178 49.295202 63.007330 65.756454 64.169427 62.345511 61.482047 18240.614304 18781.781385 19482.366992 20106.812791 20406.357161 19664.050550 19599.340165 19442.303698 18200.292141 17384.597345 17086.866533 16381.524610 15229.658358 14053.710739 13522.563696 13297.709846 11930.057034 9101.137638 6576.038706 5428.211623 5213.309136 4210.098697 1667.873982 -768.019389 -2452.050613 -3680.051643 -4491.253109 -4866.473688 -4832.772109 -4419.360114 -3751.136330 -3228.879652 -2994.190383 -2883.098592 -2761.524272 -2597.394393 -2399.130581 -2175.832461 -1934.330882 -1681.267999 -1424.235120 -1171.626455 -931.741754 -711.768558 -517.103811 -351.133291 -215.347410 -109.585310 -32.248703 19.561877 49.941350 64.011433 67.574445 66.311147 64.192675 63.006264 13659.894847 13818.746024 13437.735467 12060.214599 10793.723479 9448.373206 7749.092660 5940.210020 5973.850505 4473.101409 1484.423260 571.157172 3526.354542 330.500055 -4019.725392 -3439.310256 -2823.258746 -2834.454450 -4320.298169 -8309.524391 -10073.357994 -7748.329511 -6508.849854 -5982.254412 -5524.783019 -5072.953932 -4671.456403 -4359.143423 13986.708418 14195.296778 12356.154556 10457.435148 13812.777803 14596.694119 12329.297433 7750.819832 11236.501274 13491.964124 12484.048780 9206.586669 11725.447108 13407.898920 10760.038478 9028.353162 12472.915117 11416.514278 13263.777839 11177.576818 11423.435518 11758.625837 14063.467432 12690.668122 13923.421330 9364.010543 3516.149535 504.718688 14317.720211 15004.348645 13810.482564 14397.069210 8756.179283 10022.144696 10710.490202 11147.584520 14165.572853 8575.773032 12386.570381 12924.442172 8212.611943 13902.310719 9143.096131 13250.608641 14140.799884 9107.946805 10614.528368 8274.689343 11550.955372 10708.769204 12583.457099 13322.698581 7398.943055 5342.770772 6939.994741 5487.679954 14504.509039 14718.335279 13120.296042 11220.603220 12498.912087 8833.457995 8765.668201 6239.693508 14885.910222 7426.845097 12721.690986 15861.108194 9250.465193 5589.241008 9581.498729 3834.446430 6087.603038 2994.126715 11377.386099 11452.742622 6732.365173 11134.302462 13460.979667 6818.568528 9572.582959 9370.024026 5557.623549 1796.335866 14666.726218 14799.803935 13652.887491 12799.805813 11390.168574 12693.649139 16007.158938 15649.108584 16382.476827 16645.867805 10370.768240 7293.294425 9295.498781 4391.087985 13334.328321 6755.150088 8730.110696 12312.880385 7304.877532 9409.081538 5525.478769 9246.368993 6612.256354 1636.605922 966.815281 5788.978849 4933.862184 2769.277957 14768.019933 15585.304088 14693.417574 15372.559433 16527.854036 14450.468379 16438.036106 15642.360889 16189.799375 9703.301170 5646.933916 6877.479494 7009.454039 5408.029840 13217.538764 9620.557509 5908.400001 2606.754445 2000.693459 3083.108586 6770.329244 3687.172483 8557.814076 5725.035232 8180.472522 5085.263984 3197.928501 3.322049 14729.991497 15887.422349 14824.146104 16878.040531 12322.743280 11368.457392 13259.756605 9601.909497 14363.738941 13368.908854 10148.273678 13117.494748 11247.943418 6231.612486 8426.971894 10021.760093 12262.831591 6340.882764 11662.986953 6527.894089 5731.521053 5134.782114 3309.129549 5450.362265 4529.263739 6040.044328 4704.249339 3289.188753 14574.496396 16542.916627 18563.977597 12624.881274 16512.116574 17593.044415 16325.339321 9102.749369 16329.533320 7294.923700 9824.662411 8822.697376 12239.474473 13412.023557 15491.237011 11963.207880 5761.775332 10184.849814 11095.782121 3159.762697 7271.803558 9641.285154 4597.600740 10581.257503 8314.217489 3654.381256 4780.493574 2982.841663 14428.643243 15551.740702 16347.876533 17294.445373 13343.877155 16138.714150 12270.225074 16122.922718 16452.952605 16630.823754 13749.549768 15885.436429 11220.492738 10468.471830 8881.820054 13298.449307 11629.424237 9065.953158 4796.207682 6254.244265 9749.319365 4325.578767 3815.773467 7500.913904 10917.453520 2610.164954 5484.110463 840.186388 14686.243869 14681.357721 14403.568994 16015.764897 15633.669562 16355.413188 15553.204140 14477.214992 13302.483071 12165.287509 9041.647145 7351.916716 9385.427611 11577.438041 5366.861032 6260.649575 5377.743732 6875.617454 7721.552204 10591.602928 5257.031555 4164.370528 4914.078208 8363.191804 3905.395649 5165.982205 3410.237877 5836.800223 15153.543818 14424.378668 13529.537379 16669.826027 14784.118085 16285.792716 11475.051213 15276.913412 7547.466306 14978.752207 6120.685969 12618.397911 4607.144000 3919.695242 8466.293341 8069.897186 8278.178082 7562.901426 5766.831084 7648.005487 7853.589107 4121.901593 7750.475974 7581.967651 3484.170627 5566.288920 6240.165308 5017.809570 15560.059737 14648.051073 13640.024245 16490.972206 14994.533202 16296.253255 13780.151089 13990.897738 9687.082397 10056.793073 3779.777168 12715.733092 8154.040927 11055.199282 7688.605031 8310.005117 11292.000337 3833.251670 598.681945 4324.978759 6277.092833 10646.637821 5086.017720 9305.510930 4166.015059 3578.910450 3163.624966 3365.657568 15995.743186 16333.902358 17409.766996 16917.431906 16558.254782 12437.968848 12551.175273 12372.925597 10029.497054 11766.192451 8724.952210 11093.529365 9956.093600 3951.139224 10936.455115 3476.536232 7006.286321 1438.279341 3069.240754 9709.967436 6632.420586 5070.589556 8806.676373 5270.787154 3266.640280 324.826639 3769.238889 3459.184078 16362.963860 16067.359789 16000.559365 16807.410486 14024.403293 14900.405176 14852.834838 14143.102469 8780.324503 12648.745054 9442.016404 4362.032875 2062.943308 971.467802 2055.408523 4543.532804 4821.282480 1665.455767 2122.476667 1373.436339 1883.287811 1848.482706 3067.733077 7159.575647 1916.656802 3464.002273 3234.938261 939.525065 16774.495592 16227.777929 14899.253842 16411.278575 14072.521575 14678.973666 15215.541128 13356.185026 12773.895871 12669.143313 5672.924690 3729.323776 962.830190 1240.150899 2188.056555 1010.746683 1308.904744 1581.706916 2605.673859 3258.091885 2032.270197 769.770340 2034.628248 3303.191127 5107.077205 3493.067617 2651.338061 763.940689 16994.716570 17530.640194 17417.799802 16315.961987 15159.791444 13877.531400 15420.657712 12902.681578 11288.484501 9713.677746 5258.273791 2274.571421 537.334979 16677.659147 17364.983958 17202.082950 15743.606029 15596.221351 15524.928347 13316.195410 13310.377087 13947.689685 5613.769626 3237.018767 1401.310820 -116.987325 16190.203774 16391.389057 16255.131822 16901.449276 12974.574052 9034.075863 3318.913519 11922.662368 4677.406047 1249.715471 6034.216918 3871.506350 6814.546478 15913.595944 15758.965210 16025.399392 15229.246828 16011.791566 14146.634110 11562.210171 7478.772079 4362.127518 4749.359437 1394.327457 2059.074670 1286.260087 15781.200882 15849.301363 15910.519617 15651.271072 13830.740103 11847.430071 9765.378718 4824.685599 4689.875630 4857.153338 8485.423275 4634.475624 1278.146101 15673.374250 15447.287359 15284.061029 16459.087971 18296.360762 15071.584832 10198.654697 11107.400087 2750.536812 1820.604004 6380.708161 2579.459275 2475.585080 15715.957479 15773.698611 15711.588520 16525.839600 15663.486224 13241.776971 6899.790437 7172.962439 4865.436302 7196.834309 6976.285856 825.790172 2578.802075 15830.211209 15814.685673 15901.203687 17466.356721 17191.388801 4076.248967 3181.564442 3692.080610 2792.265508 7026.295636 3963.521151 5473.800414 2153.988355 15947.251997 16331.368316 16521.301629 12842.456614 12087.559952 6792.090733 9491.284416 9136.341150 9358.392990 3917.558264 4677.231171 2032.321199 2868.887740 16023.987231 16256.053012 16315.923673 16091.747874 13520.717431 13277.353734 13237.521848 9281.344038 7611.553138 5400.012231 6512.471716 5102.307071 11821.309332 16048.855794 15862.404368 16082.898115 15600.817399 13350.192164 13133.115495 8711.481518 9028.707467 5211.326365 12217.860736 4685.600720 7955.121824 3276.425124 15987.761239 15843.441147 16029.615006 14851.273666 13470.941125 12219.906566 10547.022762 10455.444016 5518.479123 8807.651483 10036.975939 4274.992206 4170.181633 15888.789701 15501.447107 15962.357706 15225.208484 13091.698106 14214.635822 11929.207250 12364.527631 959.079633 6721.815910 8925.412045 2769.290234 1130.996218 15951.183106 15777.371441 16010.299431 12588.874229 12406.262176 10776.156044 15892.906383 13577.344861 2821.249556 12805.017128 3467.559531 6028.766187 3696.241735 16140.139871 16554.660069 17387.193379 15799.085676 13726.067682 15427.149418 15601.420678 15396.104907 11275.901635 14253.783512 3394.425346 5186.205291 671.225290 16204.444036 16522.897632 16857.370597 16322.207560 14764.417564 16549.464331 18807.581770 16017.107419 13839.622302 13731.090397 5998.359689 2262.731138 2556.452945 16177.099071 16499.442074 16971.069311 12049.820487 18349.434896 19140.073689 13173.305141 16962.325487 6014.670532 8692.851445 4442.620442 2750.269648 1767.612310 16084.866119 16411.958416 17056.207516 16689.604818 16881.757313 14419.655004 13868.926768 12087.408407 12177.064108 15178.648935 6508.102450 4311.760072 9981.536226 15980.326123 16345.682358 16566.823403 16094.733478 17340.467707 17392.684524 12911.266410 12113.956083 11404.588553 6450.785714 7660.905302 7367.331763 2853.195646 15927.251144 16642.696087 17076.847627 18184.758117 18396.194523 15608.058040 16755.952278 9316.935769 8133.090126 11438.897346 10811.162010 7030.775112 1629.898861 15689.677964 15626.521027 14874.609950 17929.643882 16858.283548 17095.771752 16162.280983 7789.126240 13175.710412 10410.390441 5346.894301 1934.464908 1792.034928 15376.167217 14710.150031 14327.496015 19610.851694 18777.809104 15292.153070 12688.679827 11433.024053 10764.456596 6602.843968 5086.505063 3517.196979 1288.898111 15229.301252 14471.840205 14486.394280 18503.132633 17323.011404 16695.699560 13303.923826 12322.191024 13177.192923 7984.170499 6544.955581 3338.734878 -3329.973971 15273.323280 14410.443822 13544.123655 20428.421408 17159.711213 13632.857254 16292.280448 11211.064532 7199.540791 8037.826260 3985.120715 5296.011671 574.466808 15400.134268 14551.764012 13772.359784 18008.966787 17457.131113 16082.760030 9413.643072 12386.334593 7681.419246 7804.121464 6532.297025 5210.198107 2592.756315 15416.205597 14907.361289 14932.387253 19144.766836 19926.524430 10778.357473 12221.478277 12617.172198 15218.915274 10332.861596 3759.908870 5885.286536 1363.936555 15340.632905 14946.586526 14740.412521 15996.535741 17931.055477 14248.580034 9374.683449 16458.823866 10665.969516 13862.016360 3129.119065 3823.091576 21728.118054 15337.253992 15215.956205 15502.861706 19116.593311 16411.763476 14623.316560 10367.559610 11219.646648 7380.707577 7371.170446 8347.378076 3531.022984 -593.584530 15514.400265 15467.152117 16495.599746 16411.289479 15037.856239 12993.688214 17518.534145 14695.710592 11913.853189 6429.828395 2133.385638 2858.208588 1878.356475 15902.533697 15566.878336 15319.695600 15732.759570 17315.321247 14653.479007 17834.193956 17669.489911 7707.066229 9215.858935 4317.113659 5023.756762 2137.519983 16359.690240 16413.077895 16161.932875 17092.199283 17186.674599 11057.988718 13110.831594 16282.165009 15255.363006 8748.109584 8468.535664 2802.285301 1881.272866 16490.640583 16499.809445 16837.317703 17194.754374 13241.975454 11581.217049 16191.196905 15230.651655 5585.860623 3153.616453 6254.501504 5783.443064 19008.040663 16472.232673 16545.833875 17278.112409 18590.392634 17298.817269 17412.987187 11122.279783 13535.132791 11789.901832 3953.372708 3030.838276 4344.054946 712.863037 16699.054665 17032.206021 17901.687861 19068.473931 15367.739171 17230.185330 14993.423305 12173.083625 14337.413767 9844.047941 11888.214723 527.708120 4785.502579 17080.067773 17487.425690 17686.675541 16730.352830 17480.932341 13772.701670 17949.851510 16597.203146 9278.433675 11787.296818 9437.508408 -923.895811 3477.569052 17449.365080 17882.687493 19273.983561 18181.845013 17924.671934 17752.918336 18162.934468 16089.769207 6803.968868 2370.999177 5419.901799 3052.785026 1140.108465 17830.471971 18982.695327 21205.029952 16835.359021 19560.012481 16020.730221 17969.749363 20933.708135 9509.555926 2798.889166 7088.590795 2184.136925 1011.351303 18026.582513 18807.687823 19888.940167 20097.820407 18730.441024 16591.982608 18629.746898 7846.905150 4683.017147 7594.985644 2646.734480 3592.121941 1491.653120 18168.620828 19361.563095 20963.654819 21433.203104 20916.689212 18371.662282 8008.108688 5178.809977 5273.690288 7205.465671 1354.222692 963.305372 13889.993481 18274.426170 19488.265821 20695.988455 17429.676849 18762.681589 18717.829541 14925.565575 5162.523292 11354.849455 2622.625198 4825.756818 -376.389704 1620.321782 18150.893691 18587.272659 19200.485251 22110.053362 21358.751387 19211.003328 18972.189212 14078.348897 13026.439490 8592.818094 4791.976234 2977.358664 552.124076 18045.521490 18540.122156 18983.507295 22431.349905 18949.122284 17178.135313 15114.543646 13356.907694 15806.443877 10914.810455 9608.444174 7194.349779 7613.776489 18125.263919 18768.742718 18439.777829 21413.218729 23517.195361 21452.308429 16230.051284 15145.396056 14524.477806 4030.684693 6964.993529 8746.595931 22180.244077 18337.366593 18822.485057 18660.527034 20692.038964 21120.067455 18968.453735 14898.011452 11609.271746 6008.845891 9164.823197 1054.809505 3512.594049 -5637.597932 18331.595505 19269.477615 20651.886797 21786.663481 20437.060779 17190.206824 12468.235130 9786.252693 7590.770661 7906.366455 3269.317070 4248.759921 -1542.183105 18124.644520 18481.871591 19541.305723 19413.576987 21753.120474 20060.816715 12836.291216 13332.734701 11535.173815 5535.857433 1939.549661 3007.508708 3800.814949 18436.995537 18908.719725 19781.413343 20556.344690 19679.439792 14500.505759 7972.405731 15949.966574 11824.994561 5394.319752 3754.433785 8096.620706 934.772736 19290.979149 20042.860896 21418.896076 23896.842211 19574.979834 15981.144864 16180.592668 11522.440981 7804.186988 8321.311936 4086.757100 21145.738982 4636.478380 20139.558215 21427.166114 22752.006148 20148.997642 20275.993123 19904.550597 16250.835407 12631.049910 9989.498064 8943.994477 6453.730004 -125.240382 4828.203807 20635.256465 21347.076778 21738.653972 23510.878108 20616.164663 16733.868940 16930.596982 14419.378952 11754.359921 11807.463005 6134.147525 5524.478919 9299.836727 20759.192003 19978.722438 19667.402604 24513.409182 22325.561466 16516.602303 16299.684197 13750.669686 11206.877285 4833.671483 8180.411588 4029.451336 18457.901958 20569.131197 19577.152113 19139.527360 21182.324118 21133.690260 16465.631837 17279.397741 15745.092847 12085.835610 10597.484190 8143.585546 5335.597032 6818.930709 20363.824904 19637.462456 19977.619103 24298.118692 21070.621245 20048.644011 19239.570660 15763.757981 11399.834464 9315.080789 4567.800779 7064.314423 7865.097820 20534.786233 19608.576431 19831.655294 22917.886628 20546.862702 17732.818634 15167.323743 15824.198114 11515.208044 5506.221160 9287.085679 6522.883679 6056.411604 20974.912155 20592.567190 21301.876859 25794.918384 22118.602712 20864.110029 18385.894712 13658.729366 12644.419806 9542.974993 5617.126867 1763.350939 8954.401315 21524.038880 22140.872764 24755.270182 23476.604105 20240.345911 20385.640062 16709.454986 13258.157416 8686.979676 9444.717350 3381.080686 9284.325762 -1104.128482 22120.030809 23156.832309 25517.044413 24795.737430 19995.403761 18798.218888 16196.646736 17756.808046 14442.872024 9969.931700 9152.854710 7978.423382 3019.459944 22583.786143 24006.676282 26270.240275 24221.329347 21200.147705 20447.811361 20307.023729 14768.057542 16942.839770 12309.312598 7798.443040 9073.042785 -5191.016783 22505.537814 22137.374329 23884.068902 23958.357163 21178.350563 18924.385103 14857.663896 13717.582725 7272.635738 -594.729218 3028.064259 14602.584769 21017.762995 22650.086309 22539.356507 23233.414565 23423.760072 22131.230908 18674.426088 18759.831808 16236.121811 12377.270144 12580.249209 7557.481269 10609.736439 1764.124724 23277.459901 23939.979146 24013.094564 24295.832290 22014.512823 17531.394621 17719.462758 16339.291594 17360.957719 10741.580510 6679.166387 20282.697709 21392.480103 23636.874099 23348.713373 23819.226883 22726.068260 22645.456207 20828.935550 17619.861318 13625.864060 12270.413572 11155.730372 8301.636593 9524.614535 16909.629904 23691.216703 22873.799951 22376.133690 25317.586347 25373.011081 21793.471669 20187.136808 19556.976400 19431.800624 13954.294013 7769.837749 5305.208792 12524.164997 24020.166812 24831.924316 25244.860893 25645.931420 22822.194917 19730.100096 16974.533086 19099.837075 14290.723438 12216.320299 829.464928 7123.431191 24048.689743 24339.736640 24687.467913 23993.035801 23726.006311 23617.873614 20332.769595 21212.032954 18284.731859 12684.117290 16857.534394 8566.001529 1199.215834 15728.406097 24318.327166 24563.578774 24087.691833 21209.466244 22186.349979 22933.009445 19141.271261 21735.406673 16012.053127 13714.289063 12077.425817 9194.405442 14962.877327 24355.325658 25919.291613 27131.134450 25613.843438 24336.116804 21823.945790 19711.936990 20659.816593 16656.024006 15060.149513 5604.955677 4917.334557 6862.049459 24421.733341 25052.878842 26601.223243 22419.419323 23918.293464 19242.336200 20060.771793 21651.577949 14302.641508 10921.157038 12640.734836 12578.918814 10945.250776 24442.656595 24174.607495 23868.285824 23474.327189 20991.159009 22459.405746 19012.172925 19782.055495 15821.158708 13960.527405 17055.812688 8763.377563 14199.523096 24398.550845 25147.014067 26669.055066 22290.656685 22827.291255 22259.789247 21632.461869 20411.754800 19527.666418 19831.636934 8941.255204 12925.915924 12015.898236 24116.416621 25710.429671 29727.787159 19634.582195 21482.821215 20495.785615 22141.508398 19223.603639 19167.722126 21508.611674 2734.016047 2806.031973 1492.431794 23646.497026 25634.282214 29681.417595 18628.929242 21596.693026 20496.139807 20977.491686 20110.975816 21795.089359 18234.364328 16467.995393 8017.015959 24655.973908 23186.457620 23870.830127 26360.431983 21834.147154 20840.873189 20112.746134 24154.054775 22058.780528 20687.390349 18282.241814 10459.393176 9880.147673 23361.135405 22830.332884 22161.616244 22740.623360 20689.331787 22028.195415 23381.625275 22496.940982 27117.031383 20649.332428 27079.982436 13332.242960 11405.340417 25751.464664 22420.153608 21673.614472 20704.067212 24693.684974 22423.702614 23808.963861 22247.385814 24232.028480 26407.630746 21260.075294 19770.033770 20500.092818 18774.328171 21672.434870 21163.543575 20622.152891 23293.141508 21090.992049 25115.278048 24535.324904 22779.710570 25705.638213 17535.902343 21905.089857 20623.645994 890.186950 20508.368208 19155.789362 19030.359585 17385.337554 22464.940435 24584.560099 25520.141349 24167.503727 25032.574478 19156.001107 12555.714720 25415.526184 6229.991258 19352.067049 17016.886589 16628.166881 20505.146792 20733.188255 21006.682044 25369.799111 25055.012219 27269.082089 21287.121753 17118.768530 23788.573289 20037.345908 18882.424493 18916.113267 22960.063264 21428.442078 23815.658935 25449.451432 29779.262988 22431.927455 23357.283445 25542.343679 20180.421052 19105.551804 7671.346002 18799.561585 19932.523916 21194.004911 19088.176530 25214.532607 24549.457779 21525.469760 27082.871363 25400.785323 21995.631314 25499.116403 20995.633443 16377.066078 18631.429586 18572.642947 20017.326280 25728.904385 21229.049038 22627.473995 17504.770163 20809.316766 25282.905780 25945.829977 26084.714699 22729.890393 12152.665634 18280.986735 18535.620597 19996.208400 23592.531884 18349.972965 23432.859134 21254.846386 24544.076709 17949.987546 24042.340474 21643.172425 24387.972182 9384.464898 18251.257019 21031.635491 26592.593507 17892.476422 22997.689736 22417.344947 19921.611034 18794.985728 18016.191149 21751.176590 16703.751464 25163.157603 25822.335357 18519.732093 21580.954447 23074.503064 20604.644251 19033.696240 20787.130795 18636.882227 17899.959841 17674.748451 20901.203111 16504.068963 17781.136248 14872.673475 18702.565584 21790.594576 24058.819626 19598.430051 16321.814591 17704.863392 24171.266197 20123.123426 18394.480643 15910.111690 20896.837690 18702.451941 22964.828772 18553.481904 19409.214505 19936.018910 17095.921105 15511.246110 18956.274213 20058.138478 22448.498869 21895.900198 16615.674299 16748.570121 16692.894585 16171.572795
</DataArray>
<DataArray type="Float64" Name="Velocity" NumberOfComponents="3" format="ascii">