<VTKFile type="PolyData">
<PolyData>
<Piece NumberOfPoints="2177" NumberOfVerts="2177" NumberOfLines="0" NumberOfStrips="0" NumberOfPolys="0">
<PointData>
<DataArray type="Float64" Name="Pressure" format="ascii">
 11487.337625 11366.691229 11084.823756 10620.422974 9965.205732 9128.909716 8156.590616 7099.273776 6003.696428 4946.047852 3970.880899 3106.234810 2385.509859 1803.110469 1321.557478 906.391044 538.308252 208.896692 -85.070302 -345.107020 -572.520758 -768.814626 -935.696262 -1075.039853 -1188.903963 -1279.633374 -1350.079755 -1403.828834 -1444.474306 -1473.738969 -1491.909301 -1499.726108 -1498.482613 -1489.523045 -1474.006938 -1452.853768 -1426.760964 -1396.246213 -1361.695281 -1323.407650 -1281.636431 -1236.620949 -1188.611461 -1137.886213 -1084.761562 -1029.596494 -972.793977 -914.804645 -856.147925 -797.494629 -739.936205 -685.633419 -638.626011 -603.620558 -582.316232 -573.199995 11560.223598 11444.008450 11192.271959 10800.327874 10223.308920 9386.540094 8348.193589 7197.923684 5995.575439 4936.699818 3982.089174 3081.161829 2345.881624 1779.076818 1311.216133 902.640345 537.524193 209.456000 -83.929304 -343.749197 -571.112518 -767.422503 -934.331485 -1073.661611 -1187.376524 -1277.617225 -1346.934779 -1399.121031 -1440.508909 -1471.900925 -1491.167951 -1499.400902 -1498.304177 -1489.401467 -1473.911610 -1452.773041 -1426.689529 -1396.181233 -1361.635172 -1323.351629 -1281.584285 -1236.572858 -1188.567828 -1137.847425 -1084.727498 -1029.565189 -972.757486 -914.735877 -855.958845 -796.909555 -738.137140 -680.956135 -629.500303 -593.472311 -573.673180 -566.060029 11654.205996 11592.409574 11393.385036 10851.283370 10596.587328 9996.008985 8919.431998 7655.088898 5916.997087 5010.596492 4150.421453 3006.130680 2258.112226 1738.492712 1297.097978 897.864306 536.382294 209.873458 -82.843934 -342.409575 -569.705874 -766.023513 -932.951623 -1072.250450 -1185.761390 -1275.312045 -1342.562401 -1389.886867 -1431.851246 -1469.659148 -1490.705045 -1499.366209 -1498.375395 -1489.491133 -1473.997453 -1452.850953 -1426.760130 -1396.245966 -1361.695205 -1323.407619 -1281.636395 -1236.620849 -1188.611142 -1137.885179 -1084.758200 -1029.585559 -972.758411 -914.688969 -855.771751 -796.269761 -735.981608 -672.131543 -608.630497 -573.981824 -558.724258 -554.044937 -567.437381 -551.219533 -544.967324 -522.234700 -516.300939 -513.196345 -473.597914 -472.175798 -470.909531 -430.406748 -430.013683 -429.573739 -390.283601 -390.194525 -390.027091 -352.845566 -352.847143 -352.766509 -317.977862 -318.006814 -317.953501 -285.632335 -285.669094 -285.624828 -255.760712 -255.799018 -255.758399 -228.298303 -228.336020 -228.297590 -203.162055 -203.198361 -203.161835 -180.252859 -180.287379 -180.252791 -159.458964 -159.491503 -159.458943 -140.659492 -140.689943 -140.659485 -123.727693 -123.756009 -123.727691 -108.533845 -108.560022 -108.533845 -94.947738 -94.971805 -94.947738 -82.840759 -82.862773 -82.840759 -72.087587 -72.107627 -72.087587 -62.567523 -62.585684 -62.567523 -54.165503 -54.181890 -54.165503 -46.772814 -46.787541 -46.772814 -40.287568 -40.300750 -40.287568 -34.614958 -34.626714 -34.614958 -29.667350 -29.677796 -29.667350 -25.364221 -25.373472 -25.364221 -21.631997 -21.640161 -21.631997 -18.403792 -18.410975 -18.403792 -15.619100 -15.625397 -15.619100 -13.223425 -13.228930 -13.223425 -11.167903 -11.172700 -11.167903 -9.408891 -9.413059 -9.408891 -7.907564 -7.911174 -7.907564 -6.629511 -6.632629 -6.629511 -5.544345 -5.547030 -5.544345 -4.625323 -4.627629 -4.625323 -3.848993 -3.850967 -3.848993 -3.194854 -3.196540 -3.194854 -2.645046 -2.646480 -2.645046 -2.184056 -2.185273 -2.184056 -1.798457 -1.799487 -1.798457 -1.476663 -1.477531 -1.476663 -1.208708 -1.209439 -1.208708 -0.986053 -0.986666 -0.986053 -0.801407 -0.801920 -0.801407 -0.648574 -0.649002 -0.648574 -0.522316 -0.522674 -0.522316 -0.418242 -0.418540 -0.418242 -0.332702 -0.332952 -0.332702 -0.262718 -0.262929 -0.262718 -0.205914 -0.206096 -0.205914 -0.160478 -0.160640 -0.160478 -0.125135 -0.125285 -0.125135 -0.099142 -0.099288 -0.099142 -0.082299 -0.082451 -0.082299 -0.074987 -0.075155 -0.074987 -0.078223 -0.078419 -0.078223 -0.093745 -0.093982 -0.093745 -0.124118 -0.124412 -0.124118 -0.172870 -0.173239 -0.172870 -0.244668 -0.245133 -0.244668 -0.345511 -0.346098 -0.345511 -0.482978 -0.483717 -0.482978 -0.666501 -0.667427 -0.666501 -0.907689 -0.908843 -0.907689 -1.220684 -1.222114 -1.220684 -1.622571 -1.624331 -1.622571 -2.133823 -2.135977 -2.133823 -2.778794 -2.781412 -2.778794 -3.586245 -3.589409 -3.586245 -4.589911 -4.593712 -4.589911 -5.829094 -5.833631 -5.829094 -7.349272 -7.354655 -7.349272 -9.202720 -9.209070 -9.202720 -11.449127 -11.456576 -11.449127 -14.156188 -14.164875 -14.156188 -17.400152 -17.410223 -17.400152 -21.266304 -21.277914 -21.266304 -25.849364 -25.862672 -25.849364 -31.253755 -31.268922 -31.253755 -37.593725 -37.610913 -37.593725 -44.993289 -45.012652 -44.993289 -53.585940 -53.607628 -53.585940 -63.514125 -63.538272 -63.514124 -74.928413 -74.955138 -74.928413 -87.986365 -88.015760 -87.986364 -102.851034 -102.883163 -102.851030 -119.689108 -119.723997 -119.689096 -138.668650 -138.706275 -138.668611 -159.956449 -159.996716 -159.956322 -183.714976 -183.757666 -183.714563 -210.099019 -210.143631 -210.097679 -239.252178 -239.297420 -239.247829 -271.303778 -271.345940 -271.289658 -306.368011 -306.395655 -306.322177 -344.551104 -344.527588 -344.402336 -385.986219 -385.790363 -385.503338 -430.957210 -430.175506 -429.391136 -480.533060 -477.523658 -475.429179 -535.538902 -524.329689 -519.455194 -564.562776 -546.389913 -538.423191 18122.840075 18195.105555 18053.803946 18740.037083 19226.888053 18761.419315 18366.681165 17062.749856 17706.613444 17515.812433 18512.513838 17384.399102 15403.229896 17418.945005 15953.547053 13116.590864 12284.160180 10827.696173 11401.101014 10655.253687 9080.836227 9210.774987 5686.223819 3675.703666 2812.766666 1706.027299 1776.386380 1744.358010 1532.624092 1105.531497 562.240078 26.217931 -427.746056 -777.953140 -1032.173017 -1207.535463 -1320.942192 -1386.382069 -1414.934636 -1415.316787 -1394.350523 -1357.318085 -1308.265622 -1250.278986 -1185.725190 -1116.448638 -1043.917565 -969.319507 -893.594843 -817.348448 -740.480495 -659.237462 -586.708454 -555.536431 -542.116411 -537.244091 18116.440040 18267.596794 17938.835167 17189.065556 17797.521373 18091.520741 17822.670229 18159.024819 18853.630398 19096.409454 19197.894380 18000.427334 16883.825149 16785.896323 15589.977052 13997.040972 12771.178212 11757.330592 11285.059404 10913.666677 10434.553606 9630.363471 7933.795727 6041.629762 4373.484984 3083.474027 2405.448319 2045.415018 1658.795780 1151.196243 577.098517 31.285734 -425.393495 -776.391433 -1030.964473 -1206.576579 -1320.187580 -1385.796096 -1414.485619 -1414.976628 -1394.095075 -1357.127565 -1308.124687 -1250.176451 -1185.653817 -1116.406033 -1043.910964 -969.383194 -893.848903 -818.202202 -743.288090 -670.462399 -606.992396 -569.749508 -551.546740 -544.679531 18188.171694 18527.409007 19272.824220 19936.218863 20142.663956 19747.853574 19482.538595 19515.168762 19556.059525 19400.347203 18968.759015 18134.289412 17208.574770 16428.871888 15478.019765 14361.706074 13306.176422 12404.449657 11746.244803 11265.656178 10754.081195 9910.734371 8542.015925 6876.884497 5237.410812 3873.073188 2948.083074 2331.313861 1786.837148 1198.682195 590.658028 33.156060 -426.594770 -777.960846 -1032.278536 -1207.590485 -1320.962259 -1386.388103 -1414.936210 -1415.317159 -1394.350635 -1357.318227 -1308.266047 -1250.280365 -1185.729677 -1116.463237 -1043.965066 -969.474078 -894.097686 -818.987131 -745.757569 -677.599622 -620.467799 -581.195041 -559.253117 -550.363456 11702.793570 11853.319236 11810.637147 10605.225166 10305.568217 10053.461767 9247.332700 8159.862432 5742.111049 5169.457604 4385.588556 2793.547134 2103.004260 1721.717484 1292.142644 896.083275 535.673779 209.603619 -82.928673 -342.417914 -569.683189 -765.986230 -932.900394 -1072.169575 -1185.600075 -1274.915308 -1341.247583 -1385.256243 11802.395054 12528.550282 13121.616503 11756.678094 12525.344861 13124.764411 10891.483719 12322.940110 12500.795794 12477.327224 12890.834233 10499.949286 12022.177731 12467.859314 11623.807688 10851.732920 12038.395172 8913.859334 11327.588313 9707.321093 10684.807769 10319.832136 9016.873121 11899.962313 12149.552052 10816.510446 2932.048968 5493.494661 11861.097386 12374.656010 12737.820391 12529.935978 9211.518311 10275.480191 9601.836255 8517.469636 11114.260890 5459.453706 9257.844560 11957.752855 10093.829119 12141.051553 10485.763676 12198.689489 12656.531595 5828.091344 9510.175624 8808.915446 8776.019028 8957.420763 11674.881008 8704.253630 10368.923077 6403.205775 8187.443434 8158.863307 11882.947373 12279.824040 13000.389036 10848.241654 10663.252420 10329.477843 9388.964623 6718.437740 9955.963459 12701.376670 11922.250680 10157.810963 11215.020354 9529.887968 9605.936589 5395.701129 9468.174390 3196.828614 10704.950309 8966.963425 9955.320669 9709.757702 12082.845306 8068.344038 9357.750267 8976.703427 10229.152066 4942.607725 11954.106985 12861.383507 14448.135428 12520.906182 8868.203898 10476.133428 12525.466057 9628.126959 13165.667341 10652.611869 12064.119261 3536.101545 5556.146597 7731.020047 9994.893055 11180.444630 7905.545476 10853.516246 10327.151536 9828.947524 7549.208041 10464.945802 4929.099434 5111.563683 2673.439752 3138.335967 5885.783191 2198.410482 12156.501775 12817.336322 14046.888188 12775.701921 11626.551994 10368.240188 13485.887020 10968.682906 11004.837043 7534.238282 3967.989215 10176.594710 8039.863693 7392.268411 9148.493183 6745.462457 5252.578135 3179.976120 4655.873393 3863.361354 8176.572633 3051.328041 9754.300916 7219.517689 4817.098080 6815.867216 3395.307006 3940.138586 12559.630199 12994.193815 13770.761342 11211.547261 10896.995366 7965.551796 10209.420156 9472.137781 10099.496182 8338.931613 10547.468510 9897.509466 8886.703576 6442.763025 10179.386934 8604.284223 9038.318817 2950.787480 11370.132522 9578.045535 9235.054384 3852.825938 1622.674394 5413.198220 2421.250023 2622.027447 3399.323299 3847.087887 12887.661273 13316.364037 13588.275397 9508.070836 13572.787240 13512.266693 10965.979416 8158.498178 11816.935682 5546.503019 5298.309257 7192.169669 14391.841477 9378.493199 13533.865712 9325.975467 6203.671179 9632.936040 10234.305056 5816.163518 6371.583420 10322.134925 3969.628680 8263.817308 9420.568010 6790.969184 3134.203686 3435.057400 12870.006314 13289.211880 13790.916105 13350.916933 12290.973625 13393.999776 11422.934593 12102.415988 13400.591886 10626.189878 13384.055149 11445.344055 11647.471180 7492.313053 4957.275413 11742.592075 11036.293793 9971.003313 2754.119103 5545.679249 6896.333396 4480.421642 3839.255650 3795.781519 7660.726397 3535.820180 4082.024345 3277.863223 12604.194192 12699.746027 13423.380186 12959.474189 13338.040842 13474.696816 11799.564844 10775.556794 8848.728158 7257.573164 10000.916148 4320.616153 7798.361286 9347.478839 5670.865827 6951.644062 5212.769661 8375.791630 6597.114173 11459.547829 5786.140803 3573.982035 3971.930139 6836.980563 3479.640434 3754.339222 2520.342200 4266.264214 12320.707227 11279.221770 11126.530206 12962.633364 12143.583310 13197.122391 9176.814825 12591.169405 4621.611190 13561.730483 5050.175087 8911.091100 6392.554444 4177.717183 9134.827696 7480.471644 4733.114181 8028.674256 7928.127783 7622.705549 6519.144628 4623.167691 9378.164089 8042.181266 4442.130676 5005.410125 5997.110447 3548.679910 12344.014044 11059.245187 10257.513652 12995.176643 10875.665439 12530.308513 11470.293037 11665.306758 9024.330046 8745.475143 5404.201687 6555.224753 10356.851572 9501.168878 8554.973127 6990.045560 9752.858374 3057.136773 3455.182732 4157.411171 5783.252585 9380.696881 4453.751310 7542.842643 5085.382727 6059.178818 3310.889512 3111.264519 12851.875599 13319.011331 13685.173649 13800.818354 13883.232892 10232.720452 8644.703769 10274.643720 7204.531649 9664.102780 6554.754404 11284.747060 9518.702836 3247.420882 6356.632694 4068.097850 9792.767748 4904.112553 4665.840543 8731.165425 9083.698718 4826.906057 9332.978034 4523.172055 6564.153751 3915.738567 5497.456765 5156.163824 13376.152488 14052.904213 13357.323400 12497.856997 9637.383273 10385.495340 11269.043051 10443.408462 6494.038808 15716.941469 7009.396022 5334.232128 4443.433952 3105.911024 3232.854615 6410.740414 6493.343996 4900.435332 5600.275624 4713.316316 4839.400559 3501.585047 3697.500017 7424.532736 2634.578828 3720.798581 8167.979891 2407.211957 13447.428441 14155.069248 13533.213851 12576.104378 16028.671727 13949.647921 13191.394012 11681.184041 10837.270114 4785.380501 9634.323060 5891.988930 3739.101748 4977.109836 4213.180135 3746.252617 5100.213088 5119.765598 5887.269624 4300.671170 4155.766543 2883.150248 3639.843896 3330.291938 3518.409275 3640.329900 3580.863836 3256.456574 13087.239782 13605.222044 13783.798201 13314.531967 13210.476910 11304.339309 14377.284393 9276.608956 8828.614676 8096.394427 7304.681416 3279.901224 5257.585934 12681.163180 12945.318616 13302.784049 13349.860423 12325.539359 12358.579588 10928.999183 8352.870728 10761.995906 4259.148097 3487.738751 5004.394143 5030.300538 12464.714106 13141.140724 14348.967797 12600.048098 10141.933176 10207.249994 3702.558184 11322.108550 9329.221262 4155.621790 4175.788184 7604.829817 6627.902226 12447.310316 13467.085932 15498.598350 13235.252604 12406.404996 10719.285891 7245.942826 10710.268219 3608.562374 5007.270855 3862.258442 3237.029261 4831.143689 12648.806222 13667.027597 15809.922118 13431.601859 11422.019818 11463.844423 10449.523965 4274.265562 5079.525979 7414.049850 9539.206025 10183.958793 3828.303792 12975.735000 13000.900519 13912.232483 12437.112885 11501.773022 13577.633409 8948.891637 12385.508801 3237.801904 2979.241035 7929.965778 8273.749082 6355.029384 13373.984633 13542.998394 14186.324072 12840.617700 11676.836701 11556.149566 6472.153988 7241.330332 6322.968476 5452.684394 8863.590307 5199.517937 3196.291581 13686.220238 14629.007893 15668.013742 12926.640908 10761.286643 5235.151130 3284.330357 5989.934954 4424.555443 10242.090972 4722.262135 5782.673765 7013.684997 13835.459365 15071.256999 16004.845266 12039.194383 10737.315558 7934.281899 9699.653610 8882.584406 7819.517211 7765.500573 4309.456050 4056.945739 3812.527550 13855.879031 15004.967015 15532.877008 13622.983159 12612.332535 11422.307037 10699.353034 6992.879161 6429.714853 6376.065136 5609.795660 4317.515139 9126.905778 13674.412820 13917.536858 13853.534282 11892.170005 11112.287823 12005.996072 8926.832515 5909.605042 7348.992223 9512.444601 5223.324963 6631.009212 15006.009785 13452.558937 13176.447504 13047.824496 11937.414562 12792.091459 10661.736073 9807.824428 10239.095511 5856.647166 7151.438101 8838.928050 6109.898919 4722.681180 13464.211106 13550.266189 13694.528129 13475.030399 12089.117172 12795.349395 10187.712255 10217.927169 5567.044127 7658.452743 9456.536835 4994.597087 6219.635089 13690.869652 13927.865195 13856.112110 11576.428807 10159.584041 9585.876557 11344.026637 9359.700098 5534.304854 9157.167413 4985.511645 5569.084739 4592.485560 13808.305927 13621.371085 12859.356440 12877.797463 9603.183824 10954.727084 14933.009663 13819.038445 8185.591212 9082.598518 3887.316871 6872.305272 6620.541334 13711.894761 13879.536290 13628.697970 11356.328304 11995.773427 13991.689550 12369.801949 13978.757487 8004.496614 11099.318592 4289.843932 8930.644427 4450.304075 13634.410215 13864.019597 14022.021495 7538.313183 9137.853990 10194.754376 11370.308151 10761.108633 6218.407803 5898.894007 6084.819630 5293.789491 5963.261432 13713.909105 12460.246719 10918.174978 12203.935325 11530.200603 10522.415673 9319.150798 9803.957741 10438.186374 11366.354145 7765.603811 6966.383196 11035.442160 13930.822070 12668.932892 10355.400077 10057.571300 10332.875700 10779.021175 9651.389225 9066.108858 9565.499690 7180.686242 8726.508732 11406.805937 3001.462879 14094.960991 13878.681325 12258.907875 13546.770082 13134.175558 10375.420694 9977.363479 8227.975230 9427.542567 10647.779818 12397.202119 5701.489963 -22737.967430 14036.085573 14174.035799 12862.439023 12883.484349 13499.297806 13489.110677 9339.855624 5868.130690 12178.674839 6170.513417 4545.681809 6089.634576 6272.269558 13883.581476 14087.510101 13344.264888 13596.328069 13233.107395 14111.005521 6336.535848 11040.707353 8921.003508 5601.868971 8769.318894 9114.617528 6523.767341 13743.377199 14200.600537 14483.996289 12474.376685 13705.531698 12083.042555 8708.614811 10097.978287 8020.704120 6511.053628 7014.138956 8189.627283 12039.073288 13592.033109 13871.864365 14498.123173 12670.007853 13512.637402 13007.216426 12962.894197 10566.016310 6632.610484 6173.665064 6810.996783 5904.031141 4862.924697 13646.797393 13266.315082 12961.303843 14069.612068 14433.972666 12691.861009 7619.232755 13398.282158 7992.345972 8691.447238 12312.690630 9120.264037 4580.650139 13854.792128 13395.828729 12821.613118 14548.905994 13756.217273 6740.951573 11583.590781 10210.568538 12647.790376 10892.426430 10069.875744 10372.973274 8626.570100 13938.107815 13861.112552 13537.895783 12081.430296 11349.390163 13014.173628 5461.838303 13024.503983 8247.494014 10537.979369 8222.523202 7191.357019 14073.131723 13988.756450 14203.776057 14162.909969 13664.724666 13330.350975 13703.819641 4673.503411 12565.252325 8549.048777 8271.209547 13174.460745 9109.648737 3778.263318 13948.335959 13984.834347 13922.336194 14253.029412 12774.505446 12228.523628 14557.340185 12941.592846 7897.056659 12869.248133 6969.253843 6914.040113 2504.764694 13730.383231 13882.864142 14058.469439 14554.742338 14257.053280 11141.240095 14580.878490 15177.221385 7040.449444 10445.601140 3922.692081 6495.893676 3320.694418 13475.874008 13021.023011 12790.124751 15703.918517 15790.326020 6227.992625 10874.386743 14937.760733 15426.046109 13426.585870 10723.821602 9732.951725 5799.352035 13299.523751 12755.573207 12997.635785 12090.909341 13348.829594 7527.494596 12567.929044 13986.305552 7955.113654 10108.231374 10067.436842 9062.572073 9934.861551 13272.002898 12877.321676 12976.630495 14879.008318 15096.392321 14484.812924 10155.930766 12025.341332 12356.314891 9202.242969 6684.829950 12114.041112 7614.934686 13510.706224 13067.071652 13085.073238 14255.459703 13926.795201 14352.357045 13890.641730 10310.157000 12962.681101 12552.378812 10806.166812 6560.626945 6676.822593 13845.261342 13622.738620 13570.443342 12454.925477 16086.547937 13281.795102 15300.382379 14563.327092 11772.896606 12860.479846 15365.309818 7571.363653 9842.132085 14001.354490 13990.862670 13349.363367 16619.361304 15780.834018 15727.726584 15569.500396 13671.255313 9618.961532 11156.997946 10403.024866 8887.110757 10725.651934 13911.849276 14844.104630 16151.204308 17603.469620 16829.258111 14945.137527 14337.899052 15371.648422 12344.604204 9259.576496 8671.430098 9170.159976 7190.456422 13728.503735 14849.048931 16525.478171 17108.064307 15997.494761 15848.173203 16285.356303 10363.352891 13929.302577 9953.779464 7633.923755 10020.864636 8117.039050 13731.918042 13769.657316 13963.512396 16561.691405 16138.030601 15907.252767 13030.840095 7711.795051 9320.217834 14150.383782 9182.353531 4692.392805 3315.995925 14102.608002 14630.437396 14491.090021 15256.603187 13527.099031 14724.110997 15631.682999 9467.694638 11297.092594 9840.618570 5926.836014 5884.603830 8684.981466 14632.944769 15829.923698 16606.012446 18935.052485 19202.185442 15823.439602 15329.261098 12703.682258 12379.696540 11659.535322 10946.935356 10847.260677 11546.343025 14887.301699 14933.596311 15677.314799 16824.681323 16179.546145 16241.204614 13991.631087 12670.801751 14311.184624 13037.074017 10019.098148 9079.156353 10715.388485 14945.823724 13734.813654 13597.960560 19299.348476 16823.784690 19166.507128 14856.514470 14904.568068 17217.382067 7873.376277 8191.393287 13743.581090 9220.656256 15423.854845 14551.217172 13901.444134 18116.773648 15737.421740 12508.110817 15444.851414 12140.892733 11830.270329 10839.708552 9232.989707 6528.377629 5961.348673 16243.550114 17106.957023 17266.915442 18854.225674 17167.963855 14776.258780 12445.829741 16173.871644 13477.379784 11346.842042 5756.958959 7565.342426 8420.523672 16692.692859 18170.650178 19161.137659 16630.794129 16275.708259 16963.165970 13774.746403 15654.163561 14994.685310 13198.417752 6873.697852 11293.628247 437.955202 16610.323917 17559.610892 18564.477135 17492.208643 15699.670959 13236.329468 11799.407683 14763.792958 14026.185254 12981.308597 8328.651448 12721.969776 6853.633667 16549.163661 17505.871280 18926.016521 19981.738627 17474.739393 11217.372743 16007.939542 14523.515088 12499.752925 11114.300585 8688.491309 15281.842704 4113.185416 16796.120260 18045.081027 19913.626149 18000.266854 17789.651889 17050.504924 9711.600124 13312.713058 11619.716753 14817.296530 9209.048285 3214.497883 8838.552727 17105.749638 17444.231953 18237.911838 18877.613015 19121.763341 16649.643119 16773.983004 16702.474325 15235.315883 14234.111766 9259.336248 11986.142514 13733.511867 17468.542573 17567.023073 17221.368370 20719.795378 13627.358020 17255.525974 15173.504023 15834.996295 8340.563347 7596.514586 14864.264968 10796.791883 14352.565829 17909.842589 18204.880538 18207.404403 20612.277166 17063.452395 16706.704060 13989.532450 13061.203412 14532.756351 13387.972155 12418.472140 10116.331677 9161.124466 18273.186292 18605.485412 19405.633766 19695.217134 19741.737936 18681.087255 16699.460561 15937.150675 15539.696800 12275.948508 12952.174121 11124.703180 6279.901796 18499.145796 19021.433282 19724.403067 21122.796289 17298.666694 19677.450568 10966.945044 22792.493045 14800.771809 8421.177481 13911.518794 11968.200241 9823.232510 18702.181553 18724.598798 18340.116944 20353.018788 17585.116025 18835.354708 13202.530101 15920.431074 17855.149401 14068.769452 13714.493295 5348.115940 11052.185436 18915.495753 18312.758523 17765.557785 19779.737015 18244.001164 18057.374533 15891.450921 14704.080054 12090.984496 13173.833318 11725.998931 16085.365489 14372.219926 18949.865454 18417.621015 18369.198026 19748.082876 16525.707830 18117.180510 11963.820028 17632.016406 15535.238363 12263.845294 16337.368966 9921.733888 8782.542672 18796.838524 18537.121861 18544.593413 19773.570750 20782.823704 14541.461620 21102.359721 14465.869472 15597.910847 12237.536913 7988.777918 14918.739084 12656.365073 18737.770720 19406.682105 20571.704432 17262.342001 18288.641304 17962.308172 10219.790823 10772.840094 8238.473116 11068.879655 10951.875152 16116.564145 9514.980093 18802.584476 21055.834751 24465.997833 21317.934303 21245.939209 18191.796446 16255.500641 12430.637669 15991.007106 15072.788847 12333.649244 12851.320508 11384.274082 18817.090413 20090.835378 22040.052230 19830.336798 17353.508053 14931.272195 13278.969849 16386.676006 16287.908844 15826.621336 9062.545818 13731.162418 613.695792 19192.332925 18830.422793 18245.273705 17720.584622 18821.903295 18784.133293 18248.723829 16049.883547 16096.535404 15410.650197 10005.374538 12185.155246 9216.303951 20110.530428 20243.306133 19375.608841 17399.917224 22073.357861 20895.721034 16764.107610 17138.908480 17352.855264 10568.730111 10051.426025 9395.163852 12224.269048 20790.609080 21083.630082 20098.025337 20032.047565 16876.442045 14927.044326 17257.010397 17097.427681 11383.897290 16510.673079 13242.614974 10815.323374 9147.983957 20719.443746 20858.887337 19753.207166 19784.936355 21601.550470 18203.048812 16994.815459 18275.025767 16234.273585 19038.573206 13723.789217 13855.296644 12548.207055 20385.339176 20942.271608 21084.058123 15722.323311 19221.996999 17850.144063 16509.177758 17548.581119 17283.012093 16839.876379 16984.565912 11823.773957 6450.186729 20533.859807 21293.939130 21047.474679 19896.683929 17195.308260 20157.794181 17009.634027 16682.927829 12204.340206 12726.810327 14526.883548 11502.955308 11184.249996 21246.161832 23390.209980 23880.969636 21076.065414 18014.655885 17184.751020 18344.645039 19231.198371 14558.680773 15001.511542 13786.186367 10975.215240 -16335.324547 21762.947892 24076.807571 24678.944774 21740.614748 16895.349186 16556.327421 19234.889738 19293.102303 13545.541898 19905.173311 14002.520804 11309.013499 13418.516660 21699.686642 23604.244155 25151.234888 17609.548372 22561.197936 17828.587637 15864.251097 14971.203886 17056.672562 19210.628268 9453.838348 16170.892256 10906.043319 20982.895518 21370.279749 20750.160788 17453.796361 16138.753252 17222.742076 16556.400890 17869.383237 16983.168158 21148.143038 7334.549819 7580.760002 10178.207319 20006.005518 18864.600210 16825.866973 20881.758826 16757.982977 18514.763599 17674.050706 19182.658390 16166.892282 18233.009150 16629.057219 15148.838622 13371.406072 19438.987562 18679.125934 18302.958003 21891.672095 15139.729939 16673.157986 19365.418522 17021.185118 13471.807346 9268.933230 15380.260956 12196.543560 10352.603227 19315.530427 18498.617987 17563.180593 20568.537098 16695.900222 24851.177328 10939.109666 18231.845131 13912.085929 12386.792118 15667.629778 16497.058988 10936.126996 19521.883228 18817.416554 18146.653237 20879.877391 18031.100435 17347.670947 19317.870004 13405.235009 14806.824460 16782.398429 15304.586648 14062.721165 15457.597317 19843.629339 20257.734119 20453.649234 17207.144775 21561.720531 21383.227866 15710.091319 21174.464254 14260.258201 14691.364349 9182.030624 6482.268236 4240.728628 20304.784431 20414.279014 20217.677209 18228.617624 17594.242831 17022.614954 17175.550119 13529.471590 18274.001726 12357.757010 13366.514831 8170.519809 8755.587492 20920.129957 23526.663412 24320.316538 17274.983081 20524.987708 17444.581158 18662.503662 19356.956721 18007.962135 18871.639749 15385.177216 8706.537346 16295.669052 20724.599070 24004.216616 25568.146030 14726.604140 21245.860501 17992.862609 21357.309279 13102.492746 19388.502514 17431.877644 15796.441243 10616.203429 9771.352891 19909.547929 18944.055723 17189.612784 18541.060843 13150.078762 17946.265007 23413.607244 17308.743806 22650.447280 8374.001847 21060.564648 17095.087788 13477.036930 19826.453368 15776.402781 11078.959148 22224.197796 18303.105982 18922.955538 16176.545801 21874.092264 22560.174793 13372.401371 24464.600456 18445.408460 12363.467343 20113.952950 18266.397332 14992.451122 18715.856044 18851.934312 23237.883743 18251.920539 18660.866839 18676.174956 20770.567867 16296.758691 14392.299337 5732.114259 19958.966789 20343.675976 19673.968750 19210.707630 17936.000746 18021.592580 17989.122438 21629.008715 20029.958825 20297.305298 23199.893805 19985.635447 9505.081750 19389.959729 21265.773220 23719.306804 17504.191793 19624.731750 18806.029878 19970.881080 19722.974878 19916.470752 20254.915922 16048.831942 19467.631066 18144.256067 18531.799828 19810.619476 23213.662939 19074.606834 18208.645663 17094.886630 18223.930482 17669.388159 16788.053939 17020.848046 16582.477034 19732.738756 18189.450029 18122.840075 18195.105555 18053.803946 19710.797663 19330.307306 17750.274828 20004.427587 18510.211886 20216.896128 19172.559977 19306.434177 18113.544828 18009.428543
</DataArray>
<DataArray type="Float64" Name="Velocity" NumberOfComponents="3" format="ascii">