<VTKFile type="PolyData">
<PolyData>
<Piece NumberOfPoints="2177" NumberOfVerts="2177" NumberOfLines="0" NumberOfStrips="0" NumberOfPolys="0">
<PointData>
<DataArray type="Float64" Name="Pressure" format="ascii">
 11747.437617 11626.653527 11367.861531 10949.260158 10335.448712 9504.643004 8476.375582 7329.309136 6162.167206 4998.559602 3890.135736 2936.547954 2178.772267 1583.828143 1099.188734 686.015458 322.659317 -1.311371 -290.250090 -545.579379 -767.645227 -956.817127 -1114.087407 -1241.280598 -1340.985437 -1416.366252 -1471.015984 -1508.878404 -1533.691461 -1547.831929 -1552.620322 -1549.389822 -1539.504345 -1524.091717 -1503.963461 -1479.643675 -1451.434853 -1419.489387 -1383.875211 -1344.631159 -1301.810508 -1255.512544 -1205.902852 -1153.223600 -1097.795495 -1040.013578 -980.339982 -919.299873 -857.496585 -795.691948 -735.082007 -677.967715 -628.589310 -591.850039 -569.493621 -559.917934 11754.814248 11641.470946 11412.077254 11067.244220 10552.049180 9808.520052 8765.722829 7493.119972 6266.022172 5016.505866 3782.354537 2791.942924 2073.277087 1526.557011 1072.971139 675.210202 318.751163 -2.176682 -289.759826 -544.478520 -766.279884 -955.365630 -1112.646655 -1239.885594 -1339.589750 -1414.780454 -1468.855600 -1505.878802 -1531.270902 -1546.725766 -1552.171485 -1549.186674 -1539.387838 -1524.008326 -1503.894150 -1479.580697 -1451.374614 -1419.430228 -1383.816622 -1344.573404 -1301.754374 -1255.459128 -1205.853354 -1153.179055 -1097.756266 -1039.977960 -980.299921 -919.227280 -857.299878 -795.084295 -733.212627 -673.109256 -619.124677 -581.369004 -560.610972 -552.606137 11768.362858 11668.839672 11466.394255 10959.176239 10647.156952 10390.410824 9628.130543 7732.073478 6657.999765 5202.140317 3563.861645 2562.431115 1930.204962 1450.154016 1040.408038 662.213941 314.011558 -3.379049 -289.408828 -543.434845 -764.936950 -953.920392 -1111.201698 -1238.472808 -1338.141880 -1413.018324 -1465.922792 -1500.065721 -1526.155876 -1545.487915 -1551.947897 -1549.195298 -1539.448398 -1524.075692 -1503.958894 -1479.642381 -1451.434488 -1419.489285 -1383.875180 -1344.631142 -1301.810475 -1255.512442 -1205.902521 -1153.222524 -1097.791996 -1040.002199 -980.302975 -919.179512 -857.105191 -794.417565 -730.967872 -663.918845 -597.444896 -561.234975 -545.261839 -540.312027 -554.592417 -537.657228 -531.079688 -508.107833 -501.920116 -498.653367 -458.438275 -456.954253 -455.625376 -414.628196 -414.219508 -413.756455 -374.181182 -374.089981 -373.912698 -336.669206 -336.672386 -336.586445 -301.943200 -301.974550 -301.917693 -269.923427 -269.962483 -269.915566 -240.530883 -240.571125 -240.528460 -213.671178 -213.710410 -213.670432 -189.233174 -189.270583 -189.232944 -167.091850 -167.127097 -167.091779 -147.112126 -147.145060 -147.112104 -129.152608 -129.183170 -129.152601 -113.068932 -113.097121 -113.068930 -98.716620 -98.742475 -98.716619 -85.953429 -85.977022 -85.953429 -74.641237 -74.662662 -74.641237 -64.647487 -64.666856 -64.647487 -55.846260 -55.863695 -55.846260 -48.119004 -48.134634 -48.119004 -41.354988 -41.368946 -41.354988 -35.451526 -35.463944 -35.451526 -30.314002 -30.325011 -30.314002 -25.855748 -25.865475 -25.855748 -21.997813 -22.006377 -21.997813 -18.668631 -18.676147 -18.668631 -15.803637 -15.810212 -15.803637 -13.344846 -13.350580 -13.344846 -11.240393 -11.245378 -11.240393 -9.444080 -9.448401 -9.444080 -7.914913 -7.918646 -7.914913 -6.616649 -6.619865 -6.616649 -5.517364 -5.520127 -5.517364 -4.589037 -4.591403 -4.589037 -3.807152 -3.809172 -3.807152 -3.150339 -3.152059 -3.150339 -2.600024 -2.601484 -2.600024 -2.140121 -2.141356 -2.140121 -1.756738 -1.757779 -1.756738 -1.437918 -1.438794 -1.437918 -1.173404 -1.174138 -1.173404 -0.954417 -0.955030 -0.954417 -0.773475 -0.773986 -0.773475 -0.624217 -0.624640 -0.624217 -0.501257 -0.501608 -0.501257 -0.400056 -0.400345 -0.400056 -0.316806 -0.317044 -0.316806 -0.248340 -0.248536 -0.248340 -0.192054 -0.192216 -0.192054 -0.145843 -0.145978 -0.145843 -0.108059 -0.108174 -0.108059 -0.077483 -0.077585 -0.077483 -0.053310 -0.053406 -0.053310 -0.035159 -0.035256 -0.035159 -0.023094 -0.023200 -0.023094 -0.017675 -0.017798 -0.017675 -0.020020 -0.020171 -0.020020 -0.031902 -0.032094 -0.031902 -0.055870 -0.056118 -0.055870 -0.095399 -0.095721 -0.095399 -0.155076 -0.155493 -0.155076 -0.240821 -0.241358 -0.240821 -0.360149 -0.360838 -0.360149 -0.522479 -0.523356 -0.522479 -0.739482 -0.740590 -0.739482 -1.025485 -1.026874 -1.025485 -1.397918 -1.399646 -1.397918 -1.877819 -1.879954 -1.877819 -2.490381 -2.493000 -2.490381 -3.265553 -3.268743 -3.265553 -4.238678 -4.242539 -4.238678 -5.451170 -5.455810 -5.451170 -6.951213 -6.956754 -6.951213 -8.794477 -8.801054 -8.794477 -11.044831 -11.052588 -11.044831 -13.775031 -13.784123 -13.775031 -17.067362 -17.077954 -17.067362 -21.014215 -21.026480 -21.014215 -25.718551 -25.732668 -25.718551 -31.294237 -31.310386 -31.294237 -37.866205 -37.884568 -37.866205 -45.570400 -45.591154 -45.570400 -54.553473 -54.576785 -54.553473 -64.972185 -64.998208 -64.972185 -76.992472 -77.021339 -76.992471 -90.788137 -90.819951 -90.788133 -106.539137 -106.573967 -106.539125 -124.429436 -124.467302 -124.429396 -144.644404 -144.685254 -144.644272 -167.367767 -167.411422 -167.367338 -192.778169 -192.824155 -192.776777 -221.045510 -221.092531 -221.040990 -252.327670 -252.371911 -252.312991 -286.769460 -286.799069 -286.721802 -324.509870 -324.486772 -324.355144 -365.718079 -365.516284 -365.215743 -410.722000 -409.911612 -409.092453 -460.663426 -457.541584 -455.351355 -516.502687 -504.866504 -499.760815 -546.181514 -527.260250 -518.938252 17206.042332 17161.361158 18485.803344 21991.413564 20483.881036 21126.290900 22831.961112 21599.655694 18733.862531 16079.963734 17117.108146 15958.278509 14934.634753 13533.219422 13445.956424 12826.439291 13262.246941 11326.616540 9447.251679 10136.877719 8275.730583 6383.527272 4948.546313 4821.000008 4004.702024 2596.694351 2331.206843 1770.704717 1075.388850 356.764432 -273.019250 -757.791904 -1097.020771 -1318.298799 -1453.785894 -1529.502829 -1563.570885 -1567.944649 -1550.544601 -1516.795900 -1470.558738 -1414.673082 -1351.296089 -1282.126050 -1208.554294 -1131.764763 -1052.793270 -972.551843 -891.807357 -811.049789 -730.081774 -644.932509 -569.239807 -536.787044 -522.803786 -517.691630 17542.898844 17698.414306 19152.590295 22315.604328 22886.884409 22459.241358 21198.549828 19553.492268 18372.686329 16971.260751 16856.685858 16487.884251 15531.993955 14613.246597 13923.791317 13193.506757 12720.248683 11936.430844 11134.379247 10390.589150 9181.029775 7800.063436 6481.046786 5349.052004 4308.083787 3346.684136 2587.813161 1874.639277 1113.339672 370.137514 -267.607537 -754.880154 -1095.121557 -1316.992302 -1452.878233 -1528.862453 -1563.107962 -1567.601778 -1550.285754 -1516.597782 -1470.405720 -1414.554548 -1351.204947 -1282.057834 -1208.506886 -1131.739540 -1052.800377 -972.628570 -892.079366 -811.942474 -733.000904 -656.594828 -590.236926 -551.381625 -532.394376 -525.209557 17754.077716 17963.819754 18649.738014 19779.462417 19985.145823 19538.596654 18937.792763 18544.656231 18049.440485 17394.211457 16905.141960 16424.415369 15740.589777 14975.117962 14221.064131 13571.636837 13073.579189 12543.820265 11900.348036 11068.247700 9944.543308 8642.809848 7285.805811 5979.823771 4778.281594 3720.159775 2815.302875 1975.810145 1150.346112 379.746504 -267.393491 -756.860988 -1097.032162 -1318.390328 -1453.835349 -1529.522012 -1563.577157 -1567.946461 -1550.545073 -1516.796020 -1470.558801 -1414.673220 -1351.296528 -1282.127478 -1208.558940 -1131.779884 -1052.842490 -972.712060 -892.328742 -812.749472 -735.556800 -663.995320 -604.188581 -563.155828 -540.248536 -530.960101 11779.090959 11803.746170 11828.738919 10685.673401 10437.173353 10544.178724 10223.826802 7730.152338 6996.095360 5461.891001 3358.328261 2448.910134 1867.989435 1424.872150 1030.526611 658.223749 312.350627 -4.067441 -289.681756 -543.528601 -764.952709 -953.901306 -1111.164096 -1238.415559 -1338.039148 -1412.778388 -1465.111059 -1497.220537 11793.753809 12307.939157 13388.049578 12089.258257 13080.131626 12259.446567 13756.624516 12190.681582 12573.701477 12724.525978 12229.805174 12245.429372 11015.410079 12864.620950 13059.555681 9941.667064 12916.688373 10164.075216 11877.227565 10575.839010 13347.226071 10732.452207 12440.738464 12785.770083 12300.480385 10556.150749 2810.087754 5279.810635 11750.908357 12398.535327 14005.561859 12753.075304 10447.134918 9817.830458 12001.747855 8030.788995 13613.005097 6559.457695 12767.595706 11810.974404 12178.633296 11047.395906 10577.774206 12106.172376 12905.262280 5143.337231 12458.805564 9534.978956 9784.312535 9658.159937 10688.212010 8198.178844 9572.890127 5840.837018 8715.413904 8332.526559 11806.555317 12679.631286 14478.100098 9731.295428 9679.194428 11272.871840 8822.828150 6200.695843 11652.923263 11871.953865 10737.269749 9851.077114 10292.680188 8155.868834 12702.741292 5708.175351 9785.778077 3912.374933 10211.776089 12042.382169 8745.284321 11447.739207 11714.362149 8181.872700 7574.286280 9359.745775 8736.959103 4983.959810 12206.982040 13096.976165 13956.185453 14056.864919 9504.596502 14469.900648 13409.141599 10655.693254 13470.076166 11375.807617 14290.153598 3119.413911 6599.554601 6610.369200 10732.009907 11295.181254 8252.576507 12270.022766 10640.358650 11009.508810 6486.666565 11254.375176 5413.902247 6064.185221 2800.339418 3515.900833 6822.882850 2711.539298 12705.449140 12785.696313 11977.997931 12251.613960 13940.751613 10014.228369 14128.706481 10763.406399 12355.299761 7264.819649 3614.405398 11899.252187 8509.169153 7595.293004 8645.974927 7314.942979 6164.645550 2431.345496 5535.658029 3024.481920 8200.230436 3727.571113 10715.360770 7884.954763 4215.350629 7506.374481 3738.624122 4815.597055 12804.803594 13156.784729 12559.959779 13220.172740 11965.215879 6716.489123 14599.675786 8582.218321 13507.873643 8806.178460 12629.143462 11924.552703 8763.361572 6403.469008 9831.254369 8316.905451 8435.671471 3319.820324 10926.057790 8128.632724 11206.976636 4174.384564 1540.902767 5907.144931 2883.375263 1821.576149 3087.153483 3281.115743 12589.742801 13438.157576 14035.589247 9092.458613 13607.502374 14132.546230 10981.560845 7308.410589 11445.809968 4668.394885 4703.097334 5927.664068 11378.605722 7232.369304 14120.251943 8963.477553 5110.787358 8644.221289 9268.840811 5804.750013 5671.905518 9920.285211 3567.216077 8050.515826 8821.312305 6518.191543 3978.187894 1573.815865 12356.618339 12278.887580 12514.286481 13746.807142 13493.078234 11928.826564 10716.858462 13889.847531 13206.780665 11509.704800 11986.154196 12026.680468 11338.450257 5919.915955 5325.444410 11115.863051 10584.040326 11432.898782 2345.817369 5356.377907 6394.899501 4919.770574 4368.212062 3355.244472 6659.561476 3884.420919 3861.110575 2625.139253 12289.934376 11671.803334 11212.001991 12076.582063 13239.057713 13383.922032 11915.276856 11979.079504 8955.079923 8865.144600 10513.822581 3132.914163 7825.759467 10176.188436 5314.672381 5920.230129 6146.533266 7574.965255 6729.618815 10402.543263 4483.680939 4152.140407 3959.701939 6422.200534 3133.424806 2064.377528 2018.924346 4054.788969 12445.727972 12770.919484 12851.886313 13579.449001 12936.445470 10725.591723 9338.558469 11350.496455 5347.946119 13104.482344 5061.247620 9232.553865 6094.287547 2861.610941 8375.178264 8122.849553 5659.338399 7485.091800 7307.415491 7368.351777 6927.073243 2740.864444 9592.488785 8711.978711 5320.998552 5661.278309 6851.074776 4786.624131 12656.507164 13758.984959 14683.727576 13046.470088 10906.265400 12164.031172 9993.365506 11665.838025 8096.771270 9240.942647 4868.580142 7275.416895 10155.249509 9584.874433 8268.423345 7203.850475 9642.226999 3683.169855 4603.223320 6094.606672 5886.931679 9396.492710 2979.016378 6626.321477 5635.278695 5657.140406 3302.992787 2135.679919 12651.611539 12880.393092 13462.584957 13356.994996 13354.042115 8951.160553 7975.366784 10544.176255 6509.519309 9667.667823 5864.974611 10027.775385 11147.214036 2116.416011 7028.332044 4061.428864 9387.441376 6887.041110 5283.503426 9998.260374 9764.044862 6583.231285 9547.048062 5315.557645 6445.245815 2825.804030 5322.176160 5051.313120 12684.511570 12132.607856 11579.932096 14188.574198 12120.253701 11163.904926 12833.914582 10414.433665 6397.276170 13494.376369 8149.861480 4677.845997 3995.319692 3623.419694 4123.371379 5562.200362 6656.811411 3940.708062 4700.081595 5140.852562 4452.992996 3678.268344 3757.452879 8052.428876 4473.196974 4035.538554 8603.554528 3772.333630 13084.882684 12717.396254 11226.142250 13820.724090 13168.207046 13842.493007 13014.118537 11774.620998 10950.622911 6813.080362 9151.166687 6094.134057 3628.043431 4238.443772 6391.842012 3867.719957 3828.237467 5732.231339 4243.455418 3832.905338 5321.253136 3265.344711 3830.242241 5049.739440 5895.184244 3869.078259 3783.139834 3410.368183 13405.040995 13651.473354 12517.079568 11739.001992 13526.318369 11822.258304 13639.054508 8789.796249 8110.632460 7207.790292 8607.722881 3352.712006 4875.183209 13184.972809 13808.003519 13617.379248 12324.515268 13322.148067 10358.780591 10781.817808 8366.401443 10237.173018 6070.684290 2485.483342 4445.999599 5239.432622 12758.543892 12734.603830 13312.385960 13325.270987 10519.954316 10556.561028 5281.753128 11212.467373 10338.143691 3282.319191 4300.379041 9056.884482 6376.606905 12529.114151 12406.101445 13086.894625 12473.693881 10251.797778 10228.771108 7515.189809 10273.347691 3432.157641 5276.520492 3438.261154 3295.965726 4897.413242 12515.485292 12246.866373 12143.938905 12574.686009 12026.911956 11952.835375 9705.647086 5051.934259 6103.715022 6951.944174 9051.402473 5521.328397 3322.170808 12729.569316 11834.765218 10986.623952 14587.763965 14899.921721 13565.873247 9037.626747 13504.654123 3122.506969 3612.045030 6674.853490 5220.426843 4137.675621 13018.929418 12496.064372 12048.513637 14016.579370 10622.728329 10710.211174 6673.176490 7678.102929 6249.860145 5410.663207 7854.297236 4112.351055 5040.692998 13168.670409 13037.191852 12727.325230 14012.802073 10803.894502 5005.326405 5103.238580 5544.274226 4485.760565 8565.320414 5155.230341 4951.769892 4057.923500 13464.639672 13682.456373 13743.274523 13467.436542 10920.602340 7136.814849 8538.929749 8897.646836 6990.390064 7199.171873 3021.368576 3252.634043 2698.564790 13944.702199 14536.261588 14538.521392 14294.128885 10867.174745 13124.708513 10037.130260 6691.653754 6719.336970 5716.323195 4854.524015 3110.692297 10649.842529 14177.313911 14936.620831 14554.031107 16096.694273 8673.912181 10645.241579 8848.403183 5367.560365 7044.960952 10757.688691 5978.692905 5061.371816 13719.685875 13993.147927 13776.942718 13100.716708 13045.649995 13664.918261 11185.935548 11203.332236 9628.205132 6151.942145 8406.018913 8979.961918 3623.766524 5220.815550 13768.572670 13823.315639 13823.408708 14237.160831 14283.817605 9620.557247 10643.985672 10745.982663 4464.028238 8453.526972 9368.460857 4141.442964 4111.303768 13707.422858 13941.245882 14241.983478 15083.425483 8697.010157 9549.612099 8930.086946 8903.994468 5087.015159 11367.736799 3502.455739 4595.178085 4183.619546 13812.432707 13818.881987 13835.953872 13978.224678 11596.520395 10699.613903 12846.099588 15018.438588 7691.255755 11866.973082 3954.803324 6716.269484 5218.986471 13919.046111 13815.646607 13364.757905 12103.875022 11859.593193 13944.293178 11702.637797 11926.885406 7878.750649 10063.159318 5198.252023 5652.610135 5636.419950 13927.551334 13498.771991 12841.157919 7031.330921 12351.691611 13501.377883 11684.918205 11916.649658 5578.849208 5994.568089 3014.294442 4918.912101 4289.729259 13903.574766 13535.087860 13066.281279 12713.226472 13012.074809 11007.161711 9386.548825 9122.807769 8613.744335 11716.589626 5251.711443 3727.909988 7747.857295 13793.121975 14193.417167 14593.138772 13398.090965 11539.375455 10872.693955 10044.970270 10709.224257 9587.972868 7604.488544 8640.325216 10976.275899 3552.119642 13645.270777 13633.462827 13837.967931 14069.000980 11914.548486 11759.421021 12243.798801 7052.315323 7931.837151 10673.634145 12908.192747 4653.484125 -22737.967430 13556.594477 13755.614278 14782.013805 14654.832106 13299.052996 14343.541628 11859.227981 6186.274789 11178.961969 6591.500170 4240.953225 5864.655796 7631.813142 13548.851184 13494.739433 13683.629486 14062.898985 12518.499511 14107.889992 6408.546117 10110.727613 8708.428929 5372.756240 7655.629286 6250.437726 6543.479596 13816.630529 13214.033532 12672.177694 12682.945766 15778.694015 12449.381303 10221.481386 8749.413235 8417.492409 5675.499153 5482.167783 5228.646201 7865.496691 14158.106381 13192.106118 11053.895273 13022.190858 14488.401051 12241.909293 11946.461376 10314.385909 5757.776112 4525.049149 6407.839378 6096.859969 2760.621866 14167.379570 12976.680380 10251.416149 14570.641639 16246.082864 12779.515606 7112.024221 13782.467732 7079.414146 7647.308564 11174.917336 8112.717385 3665.536971 13899.294356 12573.784541 10178.689014 14777.915838 14686.458966 6495.174648 10931.176008 10736.769109 11237.677820 11154.265784 9323.389788 8707.046810 7370.627710 13618.813860 12585.768773 11785.851360 15820.650343 14029.602058 12437.500371 5447.555778 12542.471522 7768.684546 9939.710241 7080.047047 5827.924556 862.312393 13478.558494 13355.722476 13185.553958 14594.152092 14705.152646 15138.380115 4550.416000 11571.265081 5088.604872 7714.602313 11012.105215 9403.016198 5237.137861 13718.352030 14471.530209 14577.145115 16089.273945 12537.652826 11325.174907 13734.164114 13711.203845 7765.822434 9542.217621 7466.248046 5654.466228 2292.166219 14190.413742 15799.525887 16636.148860 13213.461843 13168.001953 12086.332124 15806.962141 13953.402809 6096.807679 8509.670099 6752.972728 7036.925365 3701.799986 14434.892590 16406.117353 16756.346086 15111.653406 13427.296189 7847.352702 9194.275207 12335.798677 12863.937587 10512.386435 8626.523077 7445.790062 6565.721204 14257.032505 15320.491482 14674.758378 14375.616423 13037.625482 7263.961212 11174.884060 13019.422747 8658.909398 6990.220188 7769.879686 9031.254060 9984.080780 13851.372498 13904.253085 13785.219340 15005.458296 14476.315220 13953.061691 10239.846194 11790.601720 11199.278036 8727.812645 5818.157226 10182.685674 6730.570061 13642.184686 13367.161628 13586.522978 14626.360270 14237.319313 13308.400322 13712.690346 10933.497335 10383.120779 10268.308964 8712.119517 7339.837938 6809.213555 13696.730360 12850.561758 11969.235394 11190.460156 15486.736620 12231.481734 13560.808299 13208.246801 11209.661654 11951.639871 15167.604943 5509.446265 9194.793538 13994.156487 13748.315004 14500.496836 15289.213472 14801.137926 13585.492749 15850.426037 12156.019711 8744.817870 8682.338316 7895.986257 8718.174883 8226.012211 14449.861192 15658.901885 16705.152359 15435.634847 12367.920138 13355.569651 13211.585818 15152.021804 11778.931627 9417.207453 6348.049625 10021.217570 3001.580720 14932.253048 16419.833473 16634.025377 16227.169517 13348.806251 14494.926538 15949.081891 9730.291098 14200.474778 8442.764562 7456.523473 10006.356282 4506.282285 15275.558900 15454.034772 14771.706643 16237.795263 13210.632586 12771.014672 9407.492770 5759.242946 8834.770296 12791.909451 9892.837084 2173.406460 1938.348650 15367.786298 14350.697332 13015.340160 15874.213469 12260.329684 13547.329861 13401.445186 7557.714953 11546.278714 9898.649919 5736.953284 5694.661437 8405.555729 15382.858069 13844.076319 12391.811585 16412.270195 16114.830243 12814.789971 14397.726006 11853.075087 9541.271239 10977.707332 11499.981341 10158.299510 8039.797300 15539.334700 13995.809998 12800.775410 13475.039876 16082.004520 13815.855939 12659.843231 11356.487266 14592.806502 13006.806895 9517.456957 9813.354817 9908.131614 15540.228626 13938.202763 12139.655524 18034.092297 13132.704997 18711.369209 14586.523305 14154.305632 15277.718030 8941.536310 10136.297022 9239.672419 3672.153676 15481.698656 14431.764762 13777.832802 18145.785965 15158.171031 12119.031929 14873.532895 11488.777788 10690.574725 11535.836754 8163.325718 4010.164405 5459.792642 15699.049228 15619.126691 16208.462755 16776.637172 18753.760403 14693.538818 13718.499937 15050.132261 12873.540938 11145.488472 8335.575718 7483.036606 3252.487438 16024.662484 17369.111517 18683.044606 16293.534056 17086.018198 17647.524391 12852.268500 15772.884956 14099.156301 12617.994930 6188.375140 10837.790535 2087.661391 16138.927291 17514.071920 17947.126331 17635.265869 15707.033389 13477.646027 13218.011111 14975.305463 14407.164827 13097.000665 7688.841793 11515.493182 5395.925640 16001.999388 16721.834945 17304.107840 18945.830581 16383.761090 11118.492439 16131.263454 13913.245996 13479.207763 12816.682358 7768.134867 10816.852297 5566.818200 15816.777544 16325.127648 17025.419502 15926.424208 15958.872976 15981.838301 10166.938583 14614.054096 12260.787319 14629.570495 10281.430845 7135.713607 6356.477222 15845.105255 16356.798281 17352.559808 18860.080999 16499.279972 16188.325901 17893.292751 16428.048969 14739.217944 14138.759657 8694.827103 12153.861404 11799.794131 15895.137644 16466.573001 18123.049380 20385.143778 13452.370171 15844.925421 14342.776514 15207.915598 7231.655475 8652.526931 15378.673822 9500.963240 11481.901689 15861.177554 16601.946028 18996.936772 18617.232685 16680.498440 16133.292609 14820.885278 15075.470098 16081.848740 14216.090021 10973.704543 9342.249290 6349.246205 16136.504015 16617.041100 18264.548903 19151.501841 19088.288952 16399.640866 14822.323088 15471.428906 17745.757224 12423.383014 11225.626525 8119.332156 7538.892709 16838.588212 16578.063191 16968.108676 17961.899818 16908.835669 16202.748322 11239.187998 18867.435137 12622.182671 9265.019018 13287.083347 7109.374722 5846.192375 17506.445088 17468.076278 17240.891548 17358.889066 18532.350695 17931.470322 13789.185711 17726.547782 16254.095269 13477.447059 14161.022891 4628.116575 4461.587929 17814.978290 18353.077103 17822.247996 17325.527312 18266.622771 19111.347907 16866.206933 14809.059767 12313.280408 13515.048975 11659.083094 16214.019682 8306.072788 18042.774524 18323.842219 18393.359636 19107.062032 16525.078385 18270.573659 13072.485686 18086.205723 13106.153192 9713.023374 14328.736886 6530.807703 7785.458893 18299.255122 19037.131765 19667.301838 20425.857125 17914.281832 16340.556895 17809.503665 15438.270319 13752.046500 11146.251626 7413.246003 11529.493023 10423.688295 18503.528508 19588.730639 20384.057451 17140.420528 16699.216175 14718.573144 10580.596705 9098.960784 7532.541527 8798.645073 8984.519891 11930.191706 6811.235085 18834.077529 19090.840552 18853.925100 17807.490888 19057.561785 18199.648483 16798.411490 11390.513865 14937.288652 12404.011784 10861.131525 10795.070842 8786.565583 19199.320257 19427.374690 19689.506778 19156.580893 16284.289388 15181.928626 12459.384009 17115.865434 15932.345573 14581.502591 8186.303088 9798.428269 1450.923859 19288.384067 20137.139989 20823.660054 16886.098723 18361.328585 17204.927157 17866.729249 13919.144428 14746.959264 12841.166049 7591.025736 8202.658421 4613.296242 19344.869581 20239.426071 20904.306496 18697.382344 20585.811274 20144.102114 15912.271252 15239.552838 18175.573513 8676.024491 10334.311705 3364.948676 9617.248325 19517.720129 20525.178122 21969.281680 20204.712360 18628.480121 13460.363815 14915.174309 16255.851137 8863.572165 16879.131727 9770.120248 9197.268686 8483.219638 19542.699609 19827.075017 19750.039006 19008.170127 17820.934665 15363.531379 19564.640263 19044.006454 14161.070488 18216.259954 12472.692418 10569.473875 10011.157108 19600.786661 19175.236288 18359.852393 17986.977464 20221.255959 18604.635579 12872.847004 16182.454256 17344.225768 15754.396354 14939.365581 7749.851152 5952.189085 19892.746003 19543.680265 19630.681319 20402.001605 15704.867852 21751.850534 14733.775474 15320.603155 8655.028708 10767.717658 11074.310599 11030.176547 10300.491507 20228.242423 19806.522495 19395.142936 20859.211977 18759.941332 15330.794837 20111.219526 16404.411652 12780.028911 11035.082890 9702.482786 9491.603001 -16335.311576 20403.311318 20908.411286 20460.649668 20560.879290 16432.974907 16690.760520 19369.316788 15920.153400 11976.207008 18734.559014 8844.088895 7176.392207 11446.140383 20297.727315 20628.796053 20644.989633 17617.344386 20203.657095 24675.000165 11760.187959 12380.823458 14060.435748 17267.254106 7704.591898 15056.371729 9037.801556 20117.259276 19829.442218 17906.085601 16710.884071 16552.222003 18901.451714 15232.916889 16418.811255 14898.638403 21186.118357 6751.291807 8497.560317 -2089.517016 19975.604751 19016.725707 14933.102292 20902.216793 17434.552192 17301.692802 16712.671033 15288.430265 18014.789817 16708.777548 16240.868434 15900.663717 11089.309517 19531.533029 18848.852123 17424.382932 17753.976975 15637.253827 17371.041542 16104.727072 17320.884349 10933.193560 7173.890252 11781.801525 9183.066354 6291.843278 18805.898232 18325.264038 19139.131030 17560.722620 20711.798830 20100.508962 5393.190697 14892.934406 9346.987697 7856.023129 13622.939617 14594.948217 6206.159897 18403.662376 18402.334330 18369.652756 20148.410142 17999.654601 16898.381502 19515.111395 10492.711950 13731.535913 14943.050047 14691.902006 10090.935902 12058.498044 18631.456076 20934.022255 21581.420998 14138.024589 17573.133406 18898.131015 14576.231882 20115.126674 11951.389179 13740.178031 6674.781229 830.366168 3174.429900 18808.161332 22710.470959 24525.420866 16215.916155 14961.420374 16822.172497 20488.700727 8511.945567 18560.883559 6832.132455 10906.619546 5639.264747 9454.326926 18440.120670 21462.515407 22629.663297 16546.988214 18787.500668 17865.829470 18309.186791 16398.748670 18495.432813 17319.057996 12796.155515 5422.885002 13909.433111 18074.912418 20708.716856 23908.943319 14950.664654 20448.718068 17726.612894 18390.425336 7478.557693 18781.735704 17255.953486 12983.774930 4313.880271 4425.242231 17835.005825 20457.147367 23341.903558 21233.697036 16073.979730 16492.148747 23277.281823 14755.203028 15730.598393 2154.945917 20992.705639 17808.185473 6641.017282 17613.967991 15878.830255 12521.003525 16144.859913 15763.060441 22867.585486 18174.893336 21500.038306 18855.424631 16356.313262 20133.171047 18172.359979 9780.239197 17811.054663 15991.948101 12608.680351 16559.193843 18867.221929 18378.575060 17981.592760 18012.339924 19345.734872 18350.809915 16190.589307 9997.986358 2790.966179 17352.895571 16433.481845 15265.355785 17380.212022 23130.566548 17640.920171 15914.154183 17789.073263 17899.058272 17463.921912 20638.162781 17981.088152 3986.878979 16423.231403 13414.590779 10155.860602 16878.424116 17197.888281 17860.599527 21552.993165 17237.467072 16704.046171 17389.133367 17910.013797 21419.728125 18338.948531 16644.965520 15067.543445 14236.452727 17714.211698 16404.793590 15697.774438 18130.141138 17330.657076 15483.795496 18320.195210 17858.141572 18190.568020 12919.094159 17206.042332 17161.361158 18485.803344 16295.980134 19934.756402 20793.987755 17997.910164 20288.327719 20249.298656 16895.378723 16842.091659 17229.185470 15736.342425
</DataArray>
<DataArray type="Float64" Name="Velocity" NumberOfComponents="3" format="ascii">