<VTKFile type="PolyData">
<PolyData>
<Piece NumberOfPoints="2177" NumberOfVerts="2177" NumberOfLines="0" NumberOfStrips="0" NumberOfPolys="0">
<PointData>
<DataArray type="Float64" Name="Pressure" format="ascii">
 20615.261214 20360.699901 19868.208610 19230.016591 18597.483345 18072.175163 17554.184237 16775.595131 15525.425167 13887.761055 12068.891873 10189.953428 8341.687809 6581.853288 4755.060311 2703.088344 653.298620 -881.862638 -1713.704523 -2008.214690 -1998.952057 -1849.668394 -1657.617084 -1478.086270 -1339.701768 -1253.655481 -1220.348785 -1234.580290 -1288.146436 -1369.282676 -1463.874133 -1559.605510 -1647.153440 -1719.652455 -1772.266307 -1801.999561 -1807.590616 -1789.358978 -1748.959698 -1689.056979 -1612.959546 -1524.266379 -1426.561819 -1323.182930 -1217.066059 -1110.667439 -1005.946206 -904.398761 -807.145369 -715.107513 -629.416575 -552.272560 -487.944281 -441.235702 -413.166323 -401.125595 20586.629038 20321.794486 19787.212351 18988.403789 18117.529651 17632.095138 17458.939298 16933.643241 15494.754286 13469.180176 11386.295230 9357.584269 7527.254433 6097.329608 4515.913620 2218.565375 -297.516036 -1807.969014 -2304.043600 -2324.480965 -2160.432327 -1931.611123 -1699.782632 -1500.326394 -1351.562495 -1259.349455 -1221.234489 -1231.083544 -1283.543687 -1366.910387 -1462.876997 -1559.120047 -1646.788421 -1719.285830 -1771.875800 -1801.596811 -1807.196622 -1788.994423 -1748.640873 -1688.794270 -1612.757384 -1524.124052 -1426.474691 -1323.143676 -1217.065469 -1110.693942 -1005.981754 -904.403618 -807.008265 -714.493491 -627.340581 -546.776651 -477.346518 -430.010871 -404.153794 -394.000840 20567.378799 20317.224878 20211.710776 19515.507340 17420.294757 16714.992554 17380.007907 17526.479427 15554.927754 12824.139362 10381.807271 7925.530087 5957.742857 5622.707955 4612.509917 1679.303471 -2559.081338 -3356.877094 -3106.129621 -2707.621313 -2347.650315 -2025.030347 -1747.382699 -1525.159049 -1364.580028 -1265.293482 -1221.121295 -1222.539175 -1271.037635 -1362.751755 -1461.750579 -1558.906628 -1646.925951 -1719.578996 -1772.242791 -1801.992099 -1807.588269 -1789.358245 -1748.959469 -1689.056900 -1612.959491 -1524.266262 -1426.561453 -1323.181736 -1217.062154 -1110.654665 -1005.904415 -904.262050 -806.698320 -713.643920 -624.669317 -535.930806 -452.495841 -408.305665 -388.683805 -382.092163 -402.464559 -382.095239 -373.709505 -354.338258 -347.021070 -342.870702 -306.450430 -304.689800 -303.054064 -266.868387 -266.393307 -265.821055 -232.250891 -232.150380 -231.929965 -201.688646 -201.695768 -201.590233 -174.673811 -174.710102 -174.643641 -150.838470 -150.880347 -150.829222 -129.867837 -129.908318 -129.865002 -111.475821 -111.512985 -111.474952 -95.398017 -95.431491 -95.397751 -81.389677 -81.419561 -81.389595 -69.224980 -69.251512 -69.224955 -58.696512 -58.719966 -58.696504 -49.614689 -49.635340 -49.614686 -41.807053 -41.825166 -41.807052 -35.117468 -35.133295 -35.117468 -29.405230 -29.419008 -29.405230 -24.544118 -24.556067 -24.544118 -20.421416 -20.431739 -20.421416 -16.936915 -16.945800 -16.936915 -14.001921 -14.009539 -14.001921 -11.538277 -11.544785 -11.538277 -9.477415 -9.482953 -9.477415 -7.759437 -7.764132 -7.759437 -6.332249 -6.336215 -6.332249 -5.150740 -5.154076 -5.150740 -4.176012 -4.178808 -4.176012 -3.374667 -3.377003 -3.374667 -2.718156 -2.720099 -2.718156 -2.182173 -2.183782 -2.182173 -1.746113 -1.747442 -1.746113 -1.392583 -1.393677 -1.392583 -1.106963 -1.107859 -1.106963 -0.877012 -0.877743 -0.877012 -0.692525 -0.693119 -0.692525 -0.545028 -0.545510 -0.545028 -0.427515 -0.427904 -0.427515 -0.334216 -0.334529 -0.334216 -0.260396 -0.260647 -0.260396 -0.202188 -0.202388 -0.202188 -0.156444 -0.156603 -0.156444 -0.120609 -0.120735 -0.120609 -0.092620 -0.092719 -0.092620 -0.070813 -0.070891 -0.070813 -0.053852 -0.053912 -0.053852 -0.040661 -0.040707 -0.040661 -0.030376 -0.030411 -0.030376 -0.022300 -0.022326 -0.022300 -0.015864 -0.015882 -0.015864 -0.010597 -0.010609 -0.010597 -0.006100 -0.006107 -0.006100 -0.002021 -0.002023 -0.002021 0.001964 0.001968 0.001964 0.006171 0.006180 0.006171 0.010922 0.010936 0.010922 0.016557 0.016577 0.016557 0.023452 0.023479 0.023452 0.032023 0.032058 0.032023 0.042733 0.042775 0.042733 0.056089 0.056141 0.056089 0.072637 0.072698 0.072637 0.092940 0.093010 0.092940 0.117539 0.117617 0.117539 0.146899 0.146982 0.146899 0.181318 0.181402 0.181318 0.220809 0.220887 0.220809 0.264925 0.264986 0.264925 0.312530 0.312558 0.312530 0.361500 0.361473 0.361500 0.408331 0.408219 0.408331 0.447653 0.447417 0.447653 0.471616 0.471204 0.471616 0.469146 0.468491 0.469146 0.425045 0.424065 0.425045 0.318931 0.317521 0.318931 0.123991 0.122025 0.123991 -0.194438 -0.197113 -0.194438 -0.680482 -0.684049 -0.680482 -1.389515 -1.394187 -1.389515 -2.390106 -2.396131 -2.390106 -3.766091 -3.773752 -3.766091 -5.618744 -5.628361 -5.618744 -8.068973 -8.080900 -8.068973 -11.259477 -11.274103 -11.259477 -15.356776 -15.374519 -15.356775 -20.553009 -20.574311 -20.553004 -27.067377 -27.092694 -27.067362 -35.147101 -35.176888 -35.147054 -45.067760 -45.102442 -45.067607 -57.132867 -57.172764 -57.132370 -71.672601 -71.717727 -71.670983 -89.041739 -89.091172 -89.036471 -109.617312 -109.667191 -109.600160 -133.798014 -133.835026 -133.742174 -162.012339 -161.992297 -161.830585 -194.759448 -194.534756 -194.167859 -232.759115 -231.825349 -230.835308 -277.682082 -274.074334 -271.394826 -331.623975 -318.103371 -311.777902 -362.192706 -339.713333 -329.594540 8764.372446 8826.222417 9161.268542 8626.496339 8394.439733 7810.397570 6514.433038 6454.203129 6109.084169 4679.256578 3977.975692 2922.840281 2003.913657 1440.279138 1001.144903 627.844002 292.188097 -20.260536 -315.654292 -595.258676 -857.960020 -1101.865517 -1325.148482 -1526.389508 -1704.641392 -1859.376375 -1990.405716 -2097.811860 -2181.904025 -2243.194215 -2282.386181 -2300.370098 -2298.217466 -2277.172744 -2238.639835 -2184.162760 -2115.400795 -2034.098965 -1942.055265 -1841.086176 -1732.992155 -1619.524657 -1502.356068 -1383.053591 -1263.057719 -1143.665109 -1026.013892 -911.064193 -799.550096 -691.819144 -587.358991 -481.157433 -389.604997 -351.061320 -334.360192 -327.949951 8747.173790 8738.367264 8721.299878 8785.435971 8364.909457 7381.843389 6693.782396 6215.232687 5377.537063 4287.194598 3413.970537 2629.011919 1965.159511 1433.353712 1000.374457 628.082982 292.496036 -20.002431 -315.413560 -595.000943 -857.670955 -1101.544998 -1324.802683 -1526.026015 -1704.267080 -1858.996896 -1990.025695 -2097.435266 -2181.534484 -2242.835199 -2282.041079 -2300.042195 -2297.909877 -2276.888318 -2238.381048 -2183.931625 -2115.198782 -2033.926956 -1941.913527 -1840.974376 -1732.909400 -1619.469570 -1502.326921 -1383.048584 -1263.075683 -1143.707607 -1026.091853 -911.219497 -799.926665 -692.908562 -590.791248 -494.801490 -413.489794 -366.620873 -343.762363 -334.927968 8678.647408 8688.257799 8799.944119 8904.743675 8497.986194 7566.076653 6653.855620 5822.326687 4968.734510 4074.417923 3256.856614 2543.599998 1933.822309 1424.991046 997.952220 627.310524 292.189478 -20.198775 -315.613578 -595.238813 -857.951520 -1101.862146 -1325.147210 -1526.389045 -1704.641228 -1859.376318 -1990.405697 -2097.811853 -2181.904023 -2243.194214 -2282.386181 -2300.370098 -2298.217466 -2277.172744 -2238.639835 -2184.162760 -2115.400795 -2034.098966 -1942.055269 -1841.086190 -1732.992201 -1619.524809 -1502.356563 -1383.055207 -1263.062998 -1143.682348 -1026.070188 -911.248024 -800.150132 -693.781054 -593.694046 -503.325645 -429.376583 -379.357568 -351.606802 -340.292780 20556.636188 20272.071540 20524.696417 20325.920750 17369.890060 16473.326980 17344.307153 17659.849401 15556.997700 12117.389047 10110.522348 7272.428232 4377.610982 5217.490827 4815.372817 1323.947900 -5201.609308 -4667.239436 -3373.150503 -2819.245649 -2399.601761 -2050.333285 -1759.816373 -1531.228700 -1367.400682 -1266.223916 -1220.272960 -1217.224460 20597.037892 19705.130868 18891.112720 19153.446400 18444.227442 16903.560253 13971.186092 20540.001084 21495.068010 18267.296770 15719.436023 15446.205175 17727.836959 17566.722497 18710.112232 17177.655018 19417.690936 15388.069657 17831.025747 21038.082938 15544.177712 15721.973238 19825.435818 15767.466900 19533.164593 17040.530660 2716.319413 9009.596446 20763.963775 20457.106613 20352.884106 19856.811601 18587.678572 16379.638549 13103.724507 15189.393399 18552.482467 10924.232861 18847.408938 21194.140126 20024.599993 17485.809631 17489.006645 17237.061386 12798.349377 9690.826982 17925.565609 16505.734343 15825.071893 17876.639113 18127.747058 17312.758466 12016.372790 9267.854434 12964.917151 11274.160284 20746.080134 21018.443670 21923.813673 14565.608199 14777.149687 16679.119272 16541.071057 11474.507814 21796.075587 15631.645975 14186.927039 19667.987884 17052.049522 12194.840236 19101.902792 8165.027729 14498.103970 4139.571197 17048.887271 18039.648484 14509.978419 16006.392266 18731.053962 12172.393094 17251.514757 13452.221000 12257.041505 5430.782737 20649.971023 21958.810865 24572.825915 16729.734638 14850.018298 16249.182374 19819.449141 22208.026631 19094.514677 18916.573625 18700.236845 7018.880303 12278.796926 10307.691184 16354.145931 13452.508942 14872.027453 15684.094073 17202.755667 16855.811223 11272.273650 17566.382846 11614.650637 5350.396029 5785.556218 8061.476880 11277.381033 944.837040 20704.748092 22241.418913 24544.629689 21881.455396 22145.725232 14660.388626 18412.484078 20997.409659 20010.585064 13418.429582 9473.711436 15846.245826 11675.859115 12367.639572 13392.710989 11508.280143 6414.492861 4211.557147 5658.332563 2657.691570 12416.323806 4390.200608 17386.285647 8850.633590 9318.555489 11526.124567 2220.398331 6008.877768 20625.017805 19887.997129 19098.104447 22299.997575 17490.962152 12185.924344 18628.374825 11167.027456 18781.021449 13584.708373 19486.565624 20841.589943 12516.666119 11774.681315 13328.244155 9912.861515 13403.682984 7638.838368 14618.707770 12849.091576 18052.546295 3754.977573 2818.077274 7813.530075 4706.229915 -16.528536 1951.811987 2303.451760 20422.690999 18362.993516 16423.001605 17011.217069 20591.818509 16258.268682 18360.284721 9696.505192 19682.749892 7446.946691 9500.506766 8634.844971 17158.171012 15675.460738 20276.409302 13249.791119 9056.032190 15692.153347 11902.582545 8871.085785 10749.852375 12932.112026 2746.291918 15436.421990 15244.894561 8402.343204 4997.498502 3799.942930 20440.977230 19491.318894 19487.253441 21237.595780 17894.419315 22001.479184 16312.282367 17948.090364 19546.546834 18158.309144 19936.112464 14674.184573 18945.331387 9039.873628 8485.456574 20779.647437 12317.829982 17077.579212 4977.546927 7971.359502 8355.143675 6673.840701 5805.977681 4709.388482 12100.363397 2766.957274 7225.053447 1642.617617 20560.396844 20597.984650 20770.273814 22633.880281 20822.203787 20984.899722 20490.692297 19980.982550 14900.316515 11805.287127 13886.037763 5673.617829 14672.555150 15492.825415 8670.852259 10880.623256 7700.889386 11938.048965 7965.832895 15888.018931 7554.440597 5550.790493 5940.547419 10350.325545 6233.014669 5528.937841 1372.705160 6513.513926 20581.330791 21985.140041 23337.364881 19928.010726 20975.278637 22804.113018 15449.580854 19899.060140 7410.658670 18621.306194 11712.899131 16695.811488 10488.973643 6821.775756 14970.837441 10236.098779 7335.516960 11950.125954 11669.127438 10156.636160 9744.710098 6801.260673 6724.221965 9799.098809 5782.016800 8899.183106 11864.015303 7011.075027 20587.935354 21277.928478 20442.262743 19922.988464 17905.646198 19943.564259 16116.493281 18799.086195 15628.177456 15027.386020 8092.917278 10742.724071 16418.019393 18349.773503 9332.442440 14356.920431 15196.855623 5299.830706 4963.477113 7052.792618 13459.447430 15507.253845 6537.306503 9719.875701 8977.900887 6437.457880 4240.882978 3587.814102 20969.854313 21384.606307 20856.203079 20462.888386 21180.756024 17226.463979 15684.931342 16826.955616 11686.684190 15960.928261 14684.076228 16617.787265 17619.026740 3097.727319 11907.593631 5021.025849 14068.500139 8375.000047 8452.963425 17345.087450 11628.799556 7531.230620 14275.061042 9163.959863 9800.108507 1845.695752 5884.417285 9479.942936 21380.972776 22084.399804 21769.319306 21436.784815 17901.952467 18015.762439 20522.272168 16469.229601 12696.297728 20428.347500 13690.763411 10210.714122 4881.410537 2634.510803 5145.496197 8004.248585 12533.112469 3028.178530 7017.509717 6640.894037 5859.906097 3796.220242 4277.571139 12920.036936 8072.424266 7165.372353 11453.936247 2602.012632 21463.340336 22138.871519 22036.936869 21481.277487 22095.309499 20587.517159 24112.682705 18338.493509 18141.533507 14986.877732 12884.503572 10948.416147 5808.778699 3158.794951 990.930648 2317.570617 4905.131682 3052.508987 833.834830 5620.605039 6603.708862 2427.635075 2782.947836 5555.908032 8431.092852 3645.881887 6948.809405 2528.063337 21171.057484 20174.911835 18573.147970 24498.865810 19797.609454 19170.398974 21944.052581 17153.702012 14671.305775 13664.970392 12030.069481 1581.196695 9528.383817 20643.546267 18989.860366 18897.668676 20297.958234 19128.443478 22847.739871 22035.981287 17216.833911 18062.741813 8863.364463 3180.959560 1077.872643 6922.311336 20167.529706 18350.083202 19549.355817 21672.160602 17949.791250 15078.376829 5967.719755 18528.585980 13553.965777 5767.549202 6283.520251 9118.041910 8359.402372 20153.539064 18368.226295 18331.040137 22303.702282 19219.922167 18956.860351 14991.748335 16168.743555 3945.441239 8462.728748 4350.657049 1707.650235 5393.814267 20479.233196 19217.830512 18193.512096 21230.290174 18245.029017 17231.959792 14268.993138 9294.584286 7017.070136 7555.188868 10740.993136 3664.892492 1209.364376 20621.068062 19535.437827 17488.891602 22872.251505 21893.636764 21654.750411 13172.915431 18816.644537 4777.973702 5122.769977 11436.951478 7971.844992 2453.433992 20697.108605 20653.735574 20818.058361 21782.367206 17755.218759 19242.789399 13639.741467 10639.158924 7127.834094 13391.313119 13332.149823 2970.078320 6941.306161 20634.272588 20961.985427 21548.653727 22739.198259 16850.016680 6193.522241 6653.645789 6455.018405 5556.612475 12506.320972 7597.395824 8836.042104 13669.372982 20557.946443 21595.524569 22995.995614 18959.654109 16598.401237 11181.252115 13636.503367 14522.094463 10775.257100 11412.735343 3837.341254 2363.139512 9363.700875 20485.813834 21628.362806 23102.586554 23016.997500 20390.755626 17786.286401 18647.649719 9341.511065 10117.870505 10122.211554 8484.702137 7387.121634 16096.939536 20189.808477 20388.889481 20353.396464 21584.549839 14000.231970 16560.460054 10790.615631 10322.366263 10994.204459 14927.446393 7551.691124 7200.236640 9248.784966 19949.984189 18990.135276 18332.410424 19886.121456 23217.099724 18200.488705 14832.053450 14769.441818 8662.388011 11965.443274 12671.350177 3804.009382 8573.112311 20095.137590 19506.141689 19063.921770 21769.403032 18191.039049 22081.713126 14446.559601 14871.854298 5256.701797 11666.802504 14575.146048 5904.016428 19670.777380 20431.294125 20992.510232 20413.307401 19008.879885 17500.936208 17187.099823 20802.219128 15513.251963 7225.537168 18165.573596 4285.103888 5385.709465 14420.177522 20779.124613 21433.635079 20432.718868 20952.708018 16868.607079 18285.288522 20205.620545 19825.275893 12122.577881 17885.754166 1427.548523 7437.090631 3814.490544 20963.781232 23115.770512 23390.853496 17794.653319 18805.520984 20993.542619 22638.732738 18856.298407 11709.366545 16940.271051 7400.365991 10797.680484 6098.911725 20533.975834 21988.795212 24325.356837 13401.458168 20696.833084 20285.831316 15912.802778 18647.401670 6478.060140 10305.556360 4731.849007 6646.187939 4710.880278 19967.988661 20037.619289 20411.063474 21255.681785 20595.569569 16714.231152 15716.392483 15132.487723 12248.354314 17262.070945 6729.387354 6458.030001 5760.496920 19842.425221 19724.058423 21208.424445 19965.021706 22505.065476 20209.910203 12603.472876 15019.481866 15972.791436 7943.589915 11104.143944 12886.544207 11337.646959 19864.362720 20023.765128 21653.710854 20491.424445 21680.936373 17679.679305 18222.281752 6818.792541 11238.362258 12615.601401 16308.079545 7571.359286 11646.886359 19717.991966 20407.355820 20840.671714 20854.622505 21731.677880 21053.994675 18375.179209 9991.348077 16673.075218 10793.543555 6284.743561 9351.606952 5281.598488 19408.179763 20016.523713 21646.616313 22379.260961 19580.970877 20629.047904 10889.143592 12134.776785 14998.174180 8778.359736 9331.029956 7470.083310 2859.328298 19238.020757 18949.295653 19997.399663 22516.238111 21270.828762 20322.830228 16519.096413 10769.246887 12368.186336 9303.544883 5288.695998 7718.416350 3603.608459 19456.806730 19875.940329 21513.298758 21958.519850 22380.968919 15552.635105 15959.532142 14696.886402 11024.416847 10386.549572 8177.012009 5362.814391 3919.989917 19755.608388 21003.334662 22945.877994 21272.544496 20664.620493 21694.909765 13932.671043 16719.528088 10293.867581 12034.672470 11582.767750 9564.729001 14346.420928 19769.347960 20589.436296 23119.248497 21868.584821 22777.734877 10285.538933 12865.905166 12409.548576 14797.563060 12998.237711 9021.703309 9929.782488 4161.137134 19749.164941 21075.802942 23613.962895 20878.864504 20835.205003 18161.049615 8135.770575 18439.299971 10192.280556 12830.620528 6901.987998 8920.525774 3225.142512 19685.902773 21480.993561 23458.806667 22629.355466 19551.417436 19751.959776 10959.233011 15235.074496 6360.006620 8606.545895 12207.041786 5428.947171 3155.470082 19401.621086 20846.157448 21384.982744 19604.049835 20483.770194 14201.703865 16410.348443 16836.841610 10720.732858 8614.274133 4825.736252 6727.265496 3968.489827 18988.298540 19260.002916 19332.825150 19167.225436 17522.778679 19732.572551 17255.404680 17443.717540 9662.279111 9305.462542 7985.344696 6149.653185 2298.408092 18651.926806 18445.028690 18782.369810 22826.549541 19071.366193 9856.509211 10346.754843 20235.327998 18417.290079 11113.811565 11116.617494 6917.830457 5168.682951 18384.187254 18396.267163 19192.250875 19234.746199 15420.632984 10641.507531 14693.918478 16471.083820 9100.376617 7111.443924 8029.909506 6099.031049 4565.253721 18074.864044 18078.767992 17960.153732 21778.822174 18525.434977 17419.504675 14340.110532 14414.769466 11974.856810 7455.225836 6400.413592 7563.768258 4043.256656 17787.898330 17737.985869 18039.755893 21204.246171 19123.420606 16125.608864 15150.451069 12359.095621 10004.841150 10620.847956 12236.697438 3359.358561 3494.111438 17727.904744 17646.524651 18289.454673 19660.363126 19150.987027 15112.823931 17584.201349 13416.130851 8226.419151 11909.855803 11472.305895 3135.787774 5678.705103 17849.247263 17462.238021 17164.332023 19479.567993 20285.532071 16854.612249 17914.071644 13679.032260 9467.717066 6778.468891 9451.062532 5297.400107 4154.878834 17934.044943 17802.788465 17486.222141 18733.448793 19581.856717 16799.369339 14219.692066 18066.843353 9379.246422 5386.861857 6701.430739 6305.664402 3574.162014 17850.200721 18456.487440 19136.265479 20097.834789 16877.237354 15289.130918 17641.162869 8089.975650 6724.425272 6616.981605 4135.704576 6509.493940 2419.878735 17620.333409 17844.046252 18125.875582 19918.760766 19561.219648 16742.764853 9047.535592 7768.716041 5028.735383 10137.412410 4767.003818 3945.063346 3983.265765 17292.121067 16280.367243 15117.079685 18708.983658 16196.104340 19219.899677 11387.135335 5493.463349 13117.478528 5109.443283 5079.736987 5723.169935 6154.886612 16842.394594 16486.538564 15702.965780 18978.442397 15057.384073 14956.599538 16825.717141 14691.181715 9553.245850 7171.628988 7517.018741 5319.934232 3399.960453 16312.855156 16295.940824 16377.197546 18546.906165 19894.378314 15020.372993 11617.884692 11086.513336 13204.444684 9019.964543 10109.257623 5970.089231 7134.979937 16035.343517 16508.000083 18068.707034 18384.806347 20236.993003 14116.019633 15469.706062 14197.668982 12512.149371 4867.340297 6341.321328 8291.501012 4658.240782 15954.477176 17194.068758 19122.779387 17708.965564 18280.567944 16160.346810 12981.487880 8322.090543 8443.611530 9838.919336 4398.634999 4537.101794 2765.398638 15871.288066 16505.745202 18148.446014 17669.523963 16973.825001 13794.318281 9246.363394 14741.951375 10214.700946 6474.566342 4483.383616 3569.783946 5634.342952 15840.859027 16046.596699 16744.270414 14803.825115 16666.840845 17034.318593 10451.025471 11825.845662 11786.977435 7863.226878 5175.315426 6549.825305 3850.626285 15864.433003 16039.334075 16302.275304 16620.880228 15226.717750 11977.158560 8265.166394 10961.216951 10159.341472 9787.544495 6911.309366 7848.108591 3006.491889 15933.390427 16387.319144 16746.798073 16525.169798 15065.292322 11708.436399 13197.404371 12973.739365 8521.331569 6324.544795 4762.625254 6196.403859 6010.734036 15998.945399 16504.631451 17181.159276 16407.648281 15375.387669 14926.992798 9350.411714 9753.072208 8288.197087 11074.730087 5786.224703 4494.377654 6689.889635 15925.036712 15814.746209 15418.906763 16058.747466 15145.831456 15078.441738 14910.109214 12239.599788 11154.241423 8739.717346 5459.131716 7624.869441 8506.303943 15589.384575 15691.251284 15829.450026 17052.195902 13309.151430 14015.566106 14793.834022 12803.740628 6935.717655 5973.802467 8394.346930 7385.029195 7133.841790 15013.726286 15123.379951 15393.048465 17370.530361 15565.709741 13208.813838 12287.456120 10622.798630 10644.062652 10723.121466 8050.679755 5775.578616 3549.407694 14541.402550 14538.010225 14933.238364 15581.313687 14685.293031 15640.336637 13894.499856 13102.532921 11064.691877 7801.729693 7157.718480 8844.385139 3966.239772 14411.111459 14781.211847 15811.407388 14174.923095 16624.026178 14959.151001 7858.827267 12503.076149 9466.277970 6856.526355 10083.519933 3648.586859 6631.226587 14424.234406 13665.404899 13132.315931 15580.257621 14404.719008 18252.655827 9890.351015 13803.393620 10993.197330 10630.989998 10270.077131 2889.119678 4422.816413 14375.744491 13445.946782 12088.115074 14610.420454 13789.956998 15391.182203 13899.111377 11848.791447 7931.787621 8529.911469 8180.863800 11342.833566 3024.041318 14434.915193 14003.663613 13607.648440 15888.674799 13743.835379 12857.351415 12523.334696 12530.071046 7986.590917 8952.018777 10040.617321 5360.820986 4295.523505 14644.690600 14095.785070 12890.884386 14584.907767 14338.913480 14236.867755 12016.584136 12113.466322 8231.313176 7806.718648 5652.763737 7611.443252 5470.073224 14684.616392 14056.131628 12512.310825 14545.195766 13734.822905 13863.215324 7559.168882 10345.408247 6884.153058 5075.981492 6497.346369 9464.554808 2193.145757 14491.587328 14249.756116 13668.705538 12975.880551 14249.529744 13925.701206 12724.605489 10393.207161 11241.056290 8667.999909 6576.629155 7537.317862 3850.626198 14270.131250 14678.195861 15419.617662 14757.748374 13594.900492 13021.795392 11125.153040 10910.480342 11909.301459 9382.560683 5875.226846 6560.116578 3377.751232 13905.839234 14974.057209 15556.073197 13449.129114 13529.545673 13516.214742 11772.813926 10256.696902 9419.440018 10607.211211 6500.137332 6045.415869 3894.534152 13260.756209 13691.500010 13748.262149 11651.845642 15264.562721 14526.250712 13938.621811 8917.798107 9496.191424 8486.287207 7534.281120 2631.039171 5425.014525 12696.274161 13554.258441 15038.437249 14165.300933 13513.140235 10523.601696 10977.085698 9142.700506 6595.120213 12044.445409 7617.812751 5895.496237 3396.533467 12384.415896 13055.706555 14028.019868 13747.798798 12792.472230 13942.618602 15144.670546 12361.069071 10112.843724 12582.867382 8959.899000 7482.159369 5721.572355 12264.452165 12136.709379 12177.846364 14221.709887 15213.240652 15943.294481 10742.272931 12843.726612 9278.093081 9275.067475 9172.634063 5223.258757 3137.321567 12208.959727 12462.476367 13466.931228 14281.375341 11059.177723 13625.505015 9365.538863 11549.863359 6315.702965 7048.696575 8579.733797 6531.725455 5361.675006 12058.775103 12346.713318 13495.391981 15187.998218 14899.536252 12151.005856 14693.439531 10694.844279 8352.508850 6220.689461 8924.283334 5311.870661 5990.988848 11997.446552 12201.242371 13597.769257 13180.197046 10847.852582 13571.514767 10164.742722 10179.365563 7175.679757 9308.997105 4044.492414 6795.194221 8317.492695 12118.200455 12736.661541 13574.239378 12213.777957 13495.519310 13138.087837 8069.657199 8620.549952 8626.942373 8300.454424 7808.947240 9554.446816 3353.954266 12157.557790 11550.207986 9968.738038 14619.320453 13489.397224 8107.182714 9949.048001 10065.645696 10332.592762 11097.010064 3693.786431 5902.922068 4371.492187 12000.293007 10230.292145 7465.932592 14109.486928 15763.822753 12366.809170 10221.222890 10950.080298 9476.035360 9372.143087 8011.424870 9024.016240 4698.812138 11736.155204 11261.824311 10190.498412 12455.231338 11445.157491 10394.121151 10739.910446 8530.248144 6729.160665 4988.736296 8843.308919 6271.424823 3303.782562 11322.716105 11923.031688 12561.747162 11143.087928 12781.728787 10778.055532 5519.813742 11453.687376 5150.890116 5372.503341 7668.990779 6526.867809 3167.128103 11028.127991 11438.271454 11772.813641 14251.888692 9086.728258 9451.949560 10046.183191 8410.671915 7043.393590 5561.505865 7411.584731 5901.076212 6119.559986 11125.320524 11457.268451 11264.855247 11335.569585 10092.979370 12286.622272 9645.441898 9735.202214 7142.767768 8253.413097 4292.215606 4552.520187 3815.664752 11189.741686 11923.738067 11785.542946 10581.594195 8311.584796 9149.303648 7981.304085 6410.062622 7944.479794 5135.234439 5560.092472 3323.808194 2454.045861 10873.601170 10406.026837 10093.711622 10509.603599 9846.678862 15728.262301 7743.023844 8807.698171 9711.687251 9809.861622 8217.038852 6332.385598 6592.589167 10653.210526 9609.482925 9051.233269 9179.400507 9211.177315 9111.668619 9386.559561 5935.118351 8318.425266 7640.738127 7065.302244 3046.612271 3640.144137 10702.584687 10765.803949 11390.640214 13357.358137 8042.116244 10270.379224 9474.138324 7665.616704 10673.962881 3961.033513 9804.981824 6184.589085 4594.935706 10619.776078 11494.000202 11600.824889 11452.412282 11597.820052 7683.719840 10090.500528 7751.340553 11151.704319 7803.843029 7829.910360 7768.547796 5899.598868 10112.849866 10859.224722 11472.370939 8467.425745 9805.763425 13071.413611 12893.954789 10940.423188 7991.448685 8262.827397 8458.370783 6106.302650 5247.978050 9365.395142 10450.806295 12288.559196 11240.463278 8935.848496 7839.033078 9580.576814 7269.655999 10316.573986 10873.080238 9949.001395 8256.646021 5856.667449 8863.699901 10593.930706 13464.471996 10867.439356 11258.992470 14038.675332 11946.916605 11360.793526 13610.035110 11088.473448 10374.843101 8303.620964 10110.704856 8755.499153 9749.021126 11998.927468 9754.756134 10375.264133 12455.709265 10422.466950 10894.529729 10682.678837 8343.378605 14789.183510 12145.381053 11355.274800 8764.372446 8826.222417 9161.268542 11622.692330 13461.218528 13618.361394 13724.688464 13289.715867 14270.609014 12824.596328 11197.721070 11943.422714 10767.367209
</DataArray>
<DataArray type="Float64" Name="Velocity" NumberOfComponents="3" format="ascii">