<VTKFile type="PolyData">
<PolyData>
<Piece NumberOfPoints="2177" NumberOfVerts="2177" NumberOfLines="0" NumberOfStrips="0" NumberOfPolys="0">
<PointData>
<DataArray type="Float64" Name="Pressure" format="ascii">
 13768.305549 13610.214481 13240.235504 12678.560449 12022.484262 11316.281291 10489.474513 9480.496362 8295.383981 6881.208310 5253.338552 3640.519721 2349.878116 1446.045847 715.477241 0.962807 -782.846610 -1779.996172 -2959.045189 -3941.378890 -4526.446679 -4814.792029 -4937.806881 -4962.542799 -4917.450636 -4818.598075 -4675.239134 -4489.202588 -4259.810467 -3995.745855 -3714.595449 -3430.478710 -3151.602002 -2882.680835 -2626.513220 -2384.722487 -2158.125766 -1946.960780 -1751.051617 -1569.939477 -1402.986276 -1249.453864 -1108.560906 -979.520266 -861.560610 -753.936610 -655.932816 -566.868224 -486.115616 -413.172680 -347.887739 -290.990161 -244.707180 -211.661056 -191.984444 -183.550325 13985.294512 13847.271279 13464.210422 12795.452164 12092.400475 11510.199466 10798.251934 9777.309754 8648.745515 7260.687396 5456.042887 3572.233429 2276.959074 1675.226934 1080.802761 324.001648 -456.874162 -1666.048746 -3441.530911 -4404.234506 -4748.733622 -4913.802208 -4976.991321 -4977.353885 -4924.426065 -4825.655491 -4688.368158 -4512.218987 -4281.292203 -4005.791783 -3718.359003 -3431.836775 -3152.189785 -2883.040113 -2626.810015 -2385.002426 -2158.398081 -1947.224818 -1751.304919 -1570.180031 -1403.212954 -1249.666298 -1108.759219 -979.704747 -861.731229 -754.091914 -656.066661 -566.959313 -486.094059 -412.818108 -346.543578 -287.364021 -237.752930 -204.510632 -186.460757 -179.317061 14355.570428 14365.895185 14267.324565 13196.595914 12273.376534 12128.583380 11936.477382 10566.816215 9715.067512 8570.276741 6248.916238 3400.754968 1736.747217 2402.792896 1906.447505 810.847226 168.486321 -1168.480768 -4231.793729 -5323.723645 -5063.187628 -5039.856816 -5024.610720 -4995.159154 -4932.910655 -4834.661542 -4707.841611 -4559.243631 -4333.355789 -4021.451124 -3722.526778 -3432.969131 -3152.381685 -2882.924917 -2626.589581 -2384.746361 -2158.133224 -1946.963107 -1751.052342 -1569.939696 -1402.986324 -1249.453813 -1108.560675 -979.519489 -861.558051 -753.928203 -655.905213 -566.777618 -485.818328 -412.196053 -344.710376 -279.993464 -221.185810 -190.615281 -177.023593 -172.273086 -187.445145 -173.493383 -167.577065 -157.470472 -152.513110 -149.592945 -129.217347 -128.023959 -126.893656 -107.102424 -106.784189 -106.388769 -88.695963 -88.630426 -88.478156 -73.219646 -73.225173 -73.153117 -60.198449 -60.222021 -60.178133 -49.276325 -49.302287 -49.270121 -40.154456 -40.178396 -40.152562 -32.572389 -32.593286 -32.571811 -26.301158 -26.319001 -26.300981 -21.139865 -21.154928 -21.139811 -16.913186 -16.925806 -16.913169 -13.469096 -13.479603 -13.469091 -10.676654 -10.685351 -10.676653 -8.423823 -8.430980 -8.423822 -6.615369 -6.621227 -6.615369 -5.170863 -5.175632 -5.170863 -4.022810 -4.026671 -4.022810 -3.114920 -3.118029 -3.114920 -2.400537 -2.403027 -2.400537 -1.841228 -1.843212 -1.841228 -1.405524 -1.407096 -1.405524 -1.067811 -1.069049 -1.067811 -0.807365 -0.808335 -0.807365 -0.607517 -0.608274 -0.607517 -0.454942 -0.455529 -0.454942 -0.339045 -0.339497 -0.339045 -0.251452 -0.251799 -0.251452 -0.185587 -0.185852 -0.185587 -0.136311 -0.136512 -0.136311 -0.099632 -0.099783 -0.099632 -0.072468 -0.072582 -0.072468 -0.052454 -0.052539 -0.052454 -0.037782 -0.037845 -0.037782 -0.027080 -0.027127 -0.027080 -0.019315 -0.019350 -0.019315 -0.013709 -0.013734 -0.013709 -0.009683 -0.009701 -0.009683 -0.006805 -0.006818 -0.006805 -0.004759 -0.004769 -0.004759 -0.003312 -0.003319 -0.003312 -0.002294 -0.002298 -0.002294 -0.001581 -0.001584 -0.001581 -0.001084 -0.001086 -0.001084 -0.000740 -0.000741 -0.000740 -0.000502 -0.000503 -0.000502 -0.000339 -0.000340 -0.000339 -0.000228 -0.000229 -0.000228 -0.000153 -0.000153 -0.000153 -0.000102 -0.000102 -0.000102 -0.000068 -0.000068 -0.000068 -0.000045 -0.000045 -0.000045 -0.000030 -0.000030 -0.000030 -0.000020 -0.000020 -0.000020 -0.000013 -0.000013 -0.000013 -0.000008 -0.000008 -0.000008 -0.000003 -0.000002 -0.000003 0.000004 0.000004 0.000004 0.000016 0.000016 0.000016 0.000037 0.000037 0.000037 0.000077 0.000078 0.000077 0.000151 0.000152 0.000151 0.000285 0.000287 0.000285 0.000524 0.000527 0.000524 0.000942 0.000946 0.000942 0.001656 0.001664 0.001656 0.002861 0.002873 0.002861 0.004855 0.004875 0.004855 0.008106 0.008137 0.008106 0.013321 0.013368 0.013321 0.021556 0.021627 0.021556 0.034356 0.034463 0.034356 0.053945 0.054101 0.053945 0.083451 0.083676 0.083451 0.127193 0.127511 0.127193 0.190998 0.191439 0.190998 0.282545 0.283145 0.282545 0.411691 0.412490 0.411691 0.590726 0.591767 0.590726 0.834466 0.835788 0.834466 1.160054 1.161687 1.160054 1.586325 1.588279 1.586325 2.132514 2.134766 2.132514 2.816098 2.818572 2.816099 3.649499 3.652043 3.649500 4.635407 4.637768 4.635409 5.760496 5.762295 5.760505 6.987375 6.988075 6.987403 8.244704 8.243594 8.244798 9.415583 9.411792 9.415895 10.324447 10.317049 10.325476 10.722859 10.711272 10.726259 10.274506 10.259833 10.285733 8.538892 8.528356 8.575947 4.949971 4.971653 5.072223 -1.225801 -1.072880 -0.822607 -11.006290 -10.376372 -9.678211 -26.168917 -23.739134 -21.772656 -49.691654 -40.440542 -35.661789 -65.784729 -49.737233 -42.291408 10829.368588 11120.875009 11313.615177 10004.137977 10241.855400 9760.320779 8429.680833 7673.267293 7122.309372 6967.583421 7726.527422 8611.530887 5798.714429 6727.412857 4179.390466 239.129697 121.148597 865.835406 209.622543 -764.683554 -1593.874855 -2198.269820 -2626.547024 -2939.731308 -3177.815614 -3360.091678 -3493.531540 -3579.855318 -3619.580478 -3613.828287 -3564.903815 -3476.311270 -3352.540427 -3198.775638 -3020.594667 -2823.689657 -2613.627365 -2395.657573 -2174.572477 -1954.614814 -1739.428510 -1532.043156 -1334.882865 -1149.790721 -978.061929 -820.480845 -677.358521 -548.565883 -433.547534 -331.259363 -239.893237 -154.308127 -85.556042 -57.852420 -45.870282 -40.934991 10715.023512 10884.436447 10710.707389 9161.527822 9639.375667 10270.279304 8678.849314 7412.231310 6982.566885 6724.940545 6509.228278 6169.956858 5613.475501 5285.584858 4039.111913 2672.649078 1843.315793 1161.794919 222.784105 -777.959005 -1599.921992 -2199.366007 -2626.082376 -2938.987821 -3177.068416 -3359.348998 -3492.778337 -3579.096860 -3618.836189 -3613.121706 -3564.256655 -3475.740738 -3352.058309 -3198.388282 -3020.303470 -2823.491833 -2613.516862 -2395.626021 -2174.610083 -1954.711115 -1739.572962 -1532.225549 -1335.093600 -1150.021049 -978.304385 -820.730567 -677.617588 -548.857741 -433.965180 -332.134128 -242.341180 -163.874152 -101.341524 -66.719521 -50.080534 -43.474189 10626.702658 10725.654770 10700.547915 10207.008570 10130.547465 9777.501109 8531.891355 7529.355536 7010.744462 6706.673935 6406.994927 6068.093830 5701.192123 5232.776176 4409.456751 3378.691276 2368.903903 1327.724942 223.682847 -799.362927 -1613.589829 -2205.872557 -2629.004180 -2940.440587 -3178.003158 -3360.137581 -3493.541987 -3579.857535 -3619.580918 -3613.828369 -3564.903829 -3476.311272 -3352.540427 -3198.775638 -3020.594667 -2823.689657 -2613.627365 -2395.657573 -2174.572479 -1954.614823 -1739.428537 -1532.043247 -1334.883165 -1149.791718 -978.065237 -820.491810 -677.394838 -548.686084 -433.944976 -332.575320 -244.189225 -169.600245 -111.802668 -74.190806 -53.778367 -45.446106 14592.054608 14837.053752 15369.099931 13863.867898 12672.163572 12826.983038 12848.525815 10976.840307 10542.578722 9830.867582 7338.120143 3432.906029 1070.829867 3221.138468 2870.143300 978.351664 451.023035 -655.759912 -4068.389001 -5508.739082 -5161.970935 -5076.190743 -5038.213356 -5000.558615 -4935.724019 -4837.630848 -4715.041795 -4584.411506 15080.026405 15759.459055 17171.642459 15478.219955 16839.559535 18182.915888 18142.525761 14443.667082 15845.517811 17825.640412 17361.641504 14955.900984 13316.834724 16495.830418 16192.554613 13542.678076 15996.263225 15715.232654 15977.914961 13980.579650 14070.215415 13751.104705 17646.775595 16351.077625 15300.803280 11871.692637 5752.721963 -4448.522379 15357.365209 15653.077643 16050.807237 17656.917646 12801.028421 12651.589215 14766.391466 13468.649936 16523.890373 10306.002309 15885.619033 15939.916235 12269.923122 15563.420036 14521.804017 16888.985070 14668.581815 9630.006731 16818.370324 12765.914520 14949.717129 13876.115558 13855.552697 14312.104966 10985.843995 7609.291029 10185.404265 7978.193872 15385.845721 15465.215706 15438.776900 14408.814194 13665.740527 15534.793893 12983.511628 10625.626857 15789.538051 13351.237193 16056.138889 17734.803360 13944.633463 9882.893123 14857.224461 8260.178971 9045.547265 5725.561256 13642.447066 17837.816386 11952.685503 14569.110675 15312.930698 10193.586069 11506.035567 10304.702383 10498.235197 1234.018866 15238.788365 14916.976429 14491.406273 15413.554137 14474.824940 14675.523322 16979.768932 18083.057637 20124.747400 18803.204841 15190.181302 6120.509177 10262.656524 9235.004649 14053.369571 11670.262729 12579.867907 15603.486269 12950.882262 14265.506956 9795.204613 13599.631724 9863.083467 5564.914555 3734.464862 7778.358866 9022.330861 1235.386261 15101.826890 14348.615868 13982.052552 18673.132233 20619.687626 13548.123973 18910.768146 18827.305282 19336.062676 9025.205434 5603.231399 12083.405512 7945.593345 9510.348935 10789.480421 11797.131929 7192.348719 5608.402008 4587.192846 5133.267049 8941.117200 7197.947647 15267.398027 9162.419737 11313.824450 7740.058426 5247.750553 2741.409209 15350.145367 14909.792651 14964.347213 20943.343549 18669.474468 11467.582442 16296.035919 9883.855188 16228.939169 14698.992192 15994.998607 17792.546032 12606.621899 5150.339375 12226.715581 8328.312894 14740.116084 6718.102337 13990.028351 9713.667400 9932.854601 3835.035159 4786.225708 6028.399820 7508.664537 7388.957910 4993.668981 2227.432386 15947.875220 15916.561893 16286.035914 17262.921517 21475.752732 20267.751721 17261.556137 8930.284750 16244.987217 7430.884063 10336.462161 10342.531846 15515.938275 15165.405222 17965.489029 16056.031239 6732.565933 14506.690272 10859.203455 5901.079085 7971.884575 13922.494447 4755.288455 11813.171836 10945.438287 7690.440181 6923.250439 2478.889750 16495.667846 17250.428824 18671.626790 17939.927294 19083.736080 22119.728828 18491.474597 20026.108980 21330.351801 17010.960252 21267.424251 19304.865223 15090.776710 13850.966144 9303.484565 20150.959829 14488.537775 15146.149664 3866.124250 4201.776096 11157.415939 5654.727442 3964.850678 7627.864489 9377.195627 4589.258875 6961.060368 4556.420900 16670.624044 17717.778081 18996.660350 21549.818689 23437.601803 23001.486322 20973.950225 18489.171339 18761.093525 16341.930712 13089.505250 8612.812288 16434.340271 16746.309623 7342.265168 9781.513412 8734.734693 14655.048121 8419.029293 19761.101258 6059.204499 4904.537712 5876.984899 13086.763129 3341.145892 5334.382232 4310.020594 8868.393705 16541.354290 16987.925358 17929.686341 22580.298304 22709.898381 23979.037881 17051.428408 22000.507885 5972.304669 21990.844333 12342.266928 17560.507057 7926.047090 6940.011172 16638.038828 13396.832754 9875.948399 12298.013100 11466.576933 10697.614142 11714.517840 2617.950159 9263.518921 10042.374002 4756.513090 7242.645847 8486.551989 7568.635428 16458.458734 16424.565248 16973.498804 23683.050148 19937.017677 23809.401999 21061.634197 21602.495964 18340.465124 14119.270230 9546.323968 17586.004805 14895.321739 22040.621546 12340.155620 16824.433509 19552.242371 5894.119095 2892.795380 3233.299813 13804.380230 18115.987204 4348.185624 13108.306823 7143.279117 8753.329980 4541.783983 6874.556277 16818.643090 17306.419129 17473.674112 23618.906398 25109.376773 19017.529887 17044.632114 20254.612859 13539.469232 19628.852692 18756.523847 17591.231228 16957.757081 5484.643341 15447.518118 4717.333758 11548.109698 5446.495415 8089.965700 18440.875107 12772.162107 10140.133953 12090.414926 13350.216981 6410.503665 1313.542689 6356.280092 7135.817679 17572.402630 18326.496044 18693.556409 23592.930136 23505.147679 25338.602600 24523.560014 21769.019227 16995.610697 21650.918561 16802.172961 7512.904597 3337.004715 2889.495721 -82.615351 6967.354109 11011.872500 5568.902637 5749.923866 3351.198022 5101.416115 4359.659709 4960.407294 15117.614125 4181.640813 3935.302896 8751.453504 5168.890011 18112.793842 18753.074438 19472.878035 22930.236472 24586.332598 24283.416968 24344.947810 22201.032084 22543.620840 19224.371061 9398.038930 9142.729645 7320.100589 1659.836691 3204.042015 3335.698113 1488.621062 2251.891122 3686.928677 5133.738277 3977.482370 2287.808752 2365.244872 3763.862947 4597.451122 2040.748302 4956.811738 8655.142039 18191.051758 18841.967071 20352.020962 24048.273467 24124.356265 21808.181765 23373.692647 20708.259128 16004.216486 15633.712547 11648.216145 2958.701846 2514.881140 18173.458592 19092.715608 21415.082413 26020.148121 21147.103632 24836.450631 22390.344215 21402.191795 20724.591733 7554.141361 4136.107489 -447.349167 2451.236327 18208.746103 18303.773717 19882.141363 25553.156321 19624.619165 14955.631589 7644.828721 16666.733258 8330.250453 6738.672395 8377.649323 6433.402570 9309.135817 18401.586872 18689.081174 20688.654491 24475.597361 24966.594148 24259.897453 16471.026723 15215.869165 6192.452123 8758.151299 3903.558267 2218.233753 6983.880565 18637.806912 18378.804017 20312.629819 24301.997726 22193.773844 19443.933930 14492.792986 8813.906829 5897.009471 9731.818271 14237.508506 6870.668019 2290.536595 18996.857740 19210.670604 20835.468507 23865.550527 23478.470548 23960.934699 13587.491629 19198.705455 3235.388082 1361.668885 13219.246954 3363.053360 3784.437996 19382.681326 19614.896445 20940.242606 23088.666108 20691.160061 21008.755733 12898.646429 10529.133521 9389.242882 12747.671473 11922.223134 2693.902611 5684.732590 19684.352641 19977.493441 21075.396599 23511.606244 22069.394580 4864.469137 7059.172389 5701.618940 4320.738434 11944.556938 7287.806947 4805.048924 2160.054322 19892.531836 20064.356500 21219.412108 21846.658502 18890.322026 8510.398388 14697.640988 15449.178723 12833.355941 9356.239495 5536.914622 2516.167455 2065.735091 20050.109413 21365.490915 24409.086969 23775.496483 18519.392104 19147.984740 21284.644581 12614.749148 9535.753803 8700.991706 8344.057290 8822.940529 14714.387324 20093.172259 21429.730670 22811.757758 22006.570979 18838.274612 20327.951595 12136.394412 12338.618036 10197.819938 15239.185724 8080.205181 7520.335057 5827.485325 20234.131952 21285.616092 22386.400543 20733.885242 20362.347510 17634.206213 14552.137992 14680.602735 10048.553393 12244.173681 11480.391992 1351.188287 5400.102823 20686.279753 21802.744124 24332.761416 23050.635863 19601.882084 21588.486536 19096.319122 16656.026532 2587.338724 13032.515301 13200.747401 4978.078113 1974.629705 21224.514806 23284.526586 26312.520595 21083.577277 17456.037929 15964.188142 19273.789709 17762.340880 6369.605758 20346.455017 6398.290532 7050.956583 3567.383662 21113.050122 22000.493691 23449.546789 25937.351155 18511.677232 20107.534101 22763.640160 21408.557037 13755.425958 18799.921138 3179.813271 6738.213300 2463.621354 20763.885394 22560.972214 26139.304564 20771.920536 23288.956136 24219.571470 24517.644789 19557.066559 15797.397954 14582.773814 7521.026765 2839.332799 2481.855964 20797.631637 22236.836283 23757.547147 17431.719158 24311.234349 23489.114365 15589.172846 19743.247889 8939.458794 8031.861887 3822.613722 3849.262723 4329.421713 21190.938515 22329.300468 23482.222512 26165.313594 22393.966399 19944.214504 15161.568192 13158.428854 11863.361301 19590.872427 5015.996412 2092.554215 4678.051526 21675.950690 22824.574861 24582.642262 21687.770770 25578.254864 22340.479490 17717.136836 12993.745454 14754.893441 5286.966872 8182.671306 8717.747111 2765.276190 22064.319723 23729.184183 27699.223658 24341.369035 24426.144404 20891.981673 19356.993916 7432.989044 10855.480205 13029.064685 12351.151233 5991.871066 1976.462660 21916.298238 22440.010040 23275.302256 22986.415506 19832.461415 20947.463180 18360.356108 9584.767234 16603.986898 9203.831815 4655.153221 2700.544914 4308.626163 21769.692558 23112.340877 24145.695432 22872.525946 26339.204801 19589.423941 14200.243687 11533.488289 11187.210300 5806.639285 5576.480675 3338.282782 2427.314818 22286.545212 23744.526598 23190.123977 23247.977016 22296.803093 20170.904954 15680.204022 11030.581324 14264.632791 7309.111112 5235.144768 3883.054562 7236.242540 23050.501206 24532.261434 22048.449123 22736.323899 19295.892626 12819.075945 16596.087114 10141.895438 6743.325313 6570.930033 4636.213186 4352.037572 2043.441320 23095.227747 23483.332104 21951.410399 18997.232028 20811.677604 18532.820490 9279.947827 13978.751012 8693.315524 7052.080910 8301.524220 6413.443868 2119.731884 22688.087606 23000.013591 23766.003559 22549.755005 20675.242018 11387.886735 13220.242628 11859.011574 14809.416323 10799.681355 5335.076429 5404.752958 3916.214129 22298.710163 22493.404891 22308.522510 20698.202785 20281.293941 16222.658721 6245.029796 19205.469680 8432.811801 13240.304360 4123.329780 2476.073216 9032.457086 22245.925203 23061.861980 24154.491268 22736.415014 19446.663773 19191.373355 7943.686118 13755.994987 5752.707285 10293.546025 8303.690353 4318.006557 1989.883610 22405.985705 23352.029921 24715.233173 19931.251640 17056.133071 12785.432101 16362.633620 15113.285262 10608.783845 8620.709621 4417.288325 4833.395703 2161.690329 22263.950162 22511.670699 23063.716045 19918.741246 19799.553345 17560.839219 18156.615660 16118.068298 7184.038476 9305.034024 6073.051902 4349.371701 1988.681461 21995.923064 21353.940702 20993.637118 21693.851567 19984.006880 9807.213533 11427.676359 17479.729985 17919.157168 9642.549130 9229.742815 5378.065548 1980.305285 22132.905002 22428.986641 22348.138938 19431.362769 13742.137469 10074.421602 14580.506632 15318.267164 6986.997414 5375.508960 6103.637928 5885.380647 5337.960572 22197.923523 21233.026048 19311.935853 21260.997291 17013.114632 16122.428821 11553.391014 12879.938592 8788.591707 3859.520299 2658.664647 6350.902371 3227.604753 22138.875888 21777.770970 20156.048652 20348.018558 15695.591380 17192.789857 15329.765995 12248.025611 10636.372971 10268.496226 10690.684264 2780.854491 3949.515463 21792.591725 19857.892719 17126.922286 17472.247552 19137.332756 13397.769787 16268.770339 13952.827304 9215.052816 10645.791296 10804.931450 1917.352986 5277.156510 21442.054801 19009.881770 16163.964239 19798.151239 20554.639690 16873.771646 17601.813215 11691.257372 8227.348950 4649.160450 6849.891182 5052.812019 4745.045737 21329.845035 20036.376994 18326.749378 19176.184822 18063.904826 15075.392699 15537.090521 16004.501978 9942.157849 5217.360782 8257.325326 3429.355127 1787.530551 21025.891365 19753.685543 17337.248858 20173.582016 18082.439690 14491.182780 16348.740781 8067.175734 4958.771609 6738.500635 3726.822502 6039.473599 4277.657870 20613.815704 19415.423169 17900.077626 18460.038948 19525.872535 14926.323555 7569.897651 6649.164469 6264.166109 7994.909709 3593.889141 2196.796578 4445.741965 20255.863406 19968.839917 19339.186569 17536.883170 16655.622708 17547.711961 12505.671473 5959.099857 12177.378576 4459.434014 3966.646046 2340.546858 2554.575488 19816.024326 20247.698545 19663.185480 18038.235283 17934.404893 15915.651266 15325.774179 12225.375942 11094.758621 7937.451115 5347.404351 5558.238221 4983.143451 19406.151798 20130.343815 20643.784920 18007.587585 17235.574116 15030.726183 12799.900319 9414.467757 13473.674825 8344.598216 7922.092764 4374.601417 2223.048621 19312.291432 20213.032752 20081.837784 18374.121689 18237.702094 18383.916251 14967.476397 12126.679280 10128.694677 5213.297027 5143.684765 8128.024819 7949.472718 19335.056287 19331.499540 17608.642703 18488.245789 18578.786826 16107.334154 12169.920812 9038.779954 7453.171758 9674.765416 4007.826097 2156.605079 1256.543797 19302.599026 19007.742118 18333.922264 18180.655417 17529.519966 14570.736636 8186.500629 12532.426363 8354.035222 6826.131143 3776.023620 3654.380476 2782.360455 19070.523071 17426.734651 14208.870606 16639.851496 18465.561639 17367.792558 10394.681747 10699.403003 8499.668035 6135.186621 1716.530641 4808.108197 3827.820307 18804.672409 17928.909918 15232.175697 16740.138073 16222.522872 13044.349374 7703.044614 11327.306111 7689.240836 6844.835042 4583.650141 2968.103619 1815.542520 18484.185665 17873.718986 16139.472187 15950.768293 16940.113596 12967.073892 11836.960694 10208.900674 7026.907398 6254.781522 4196.076091 6964.817352 2974.583034 18213.254918 18088.538218 17033.356115 15547.603243 17281.407317 17634.835204 10542.672274 8823.431027 8057.915611 8154.849491 6222.226757 2158.096746 3316.299802 18166.265848 18559.606512 18176.629493 16506.624205 15495.726384 13183.235585 12219.548357 10957.227692 9587.928733 7062.514238 2601.051642 5626.729445 6121.921515 18283.661551 18819.733402 17483.351279 14501.998392 15398.504558 12846.658776 12758.796297 8947.992456 7251.228247 5120.601543 6193.608835 3662.261738 6763.651340 18277.827838 18276.633314 17030.104837 17221.572767 15520.217834 12773.591369 12025.212727 9358.032633 8578.126017 8661.658498 5494.878880 3408.294016 6135.945535 17871.709214 16641.650545 13963.651497 15100.518220 14803.572905 13155.684006 12335.713927 10637.628974 9438.085932 5294.158484 5991.840857 3652.270849 6155.389804 17544.586298 16632.557693 16180.038187 13442.696714 14960.254801 14821.779610 9082.122628 11419.833557 7541.810958 3835.378731 7593.907354 6756.544118 4179.908537 17413.132569 16864.468029 17251.133347 14908.826501 14115.183522 16630.479448 9693.198729 10501.717941 10063.753668 7086.800283 5847.137313 756.879104 7219.668374 17385.554622 17195.038804 16104.018828 13452.084127 14587.620279 13898.964873 10963.415344 10327.739041 8315.789097 7299.895022 4149.928659 9479.926109 8321.930347 17441.474640 18114.387565 18470.124685 14705.987159 12474.514357 12304.563684 10389.322548 13540.712163 10172.956381 8515.865221 6978.963230 8368.674941 3070.808938 17303.318440 17610.389165 17477.962162 16193.807310 14218.144834 13736.617845 11724.070973 11568.489254 10026.671038 6507.837300 4891.739771 10238.998678 4812.341570 17056.186345 17267.031909 17201.700893 14330.919819 14276.740765 12245.938436 10665.697832 9578.538544 4702.655149 730.950676 1876.903000 10104.596077 -711.860212 16650.894496 17048.049510 16978.069427 13612.195976 14665.732409 12257.251283 13387.769064 11048.832367 11631.059798 9431.947845 1560.343414 8123.867210 4969.192911 16071.829509 15802.215827 15456.018353 13833.315771 14677.210784 10860.887460 12197.839410 12438.858940 11987.513658 8948.928854 326.151431 9690.363318 5788.296189 15712.720463 15921.796237 17366.401622 13895.333246 13842.210431 13032.540197 12052.541928 9826.986057 11998.863789 7202.516903 5984.123631 10336.003281 526.721765 15811.507512 15679.416624 15983.341679 16726.264500 15864.436515 16189.334108 11775.225896 12879.059587 12602.485344 6761.519061 6434.985325 6198.418759 9775.645083 16208.567634 15471.204782 14745.626461 13768.649233 16305.936552 13350.792655 9962.681983 12303.713618 10627.564813 10725.840446 3575.959972 5787.811789 7570.323458 16270.224284 14794.465363 12026.657495 16870.589144 13226.043123 12798.109192 14154.416650 14230.803756 10019.461599 13533.766544 7270.651616 5878.431962 9753.909058 15912.942695 15327.718435 12680.085305 15895.625495 15203.638520 15561.096168 12548.267532 12573.775321 13000.599331 11191.819295 10581.800760 8288.286162 2046.698103 15511.406820 16076.661254 14968.594071 15635.760495 14466.050056 13132.859771 11403.994524 14773.571753 8239.789908 12956.958391 3921.588728 5918.388582 8878.577819 15061.919957 14903.202149 13738.855008 16229.534160 16787.913960 14392.267976 12110.422238 12141.220661 8285.196807 8025.703711 10181.880247 7916.204661 3268.113106 14562.962000 13681.791420 11945.636230 15897.877396 12841.404374 13513.401636 11707.004351 11095.082300 10625.099779 9542.217081 8714.091141 9155.275024 10507.227494 14142.999711 12852.315331 10752.478119 12751.312125 13023.064846 13702.512339 8907.008211 9856.933651 10386.251802 12220.088724 7653.252637 10522.006710 5386.791618 13778.221518 12567.693746 11587.043130 13190.765116 13459.205300 12760.776329 11440.060369 10564.979247 9708.196908 9904.115626 4539.856751 5426.953730 2958.994237 13359.315215 12413.737239 12001.554795 12732.872203 11628.743721 13699.480414 14965.938942 12082.588586 11715.785417 13277.901475 9318.145025 8955.496282 10871.204310 13147.473070 12020.944841 11927.399819 13213.487173 13312.247225 14447.807098 13365.749739 11729.541712 10897.466252 9272.227965 8527.667788 6382.157070 5500.832315 13186.418350 11434.838744 10519.890136 16265.279269 11501.222737 13017.425672 9268.113136 12271.210587 8293.452510 10619.874478 10144.442421 9954.637395 5065.822168 13339.523113 11234.064542 9100.457434 13905.268493 10122.638405 10947.735365 10858.345989 9334.854601 10693.125565 9859.841645 10661.705171 10123.822254 5952.960660 13594.801786 12784.422685 12088.011597 12987.361020 9672.514749 12975.668922 9608.732390 12945.266233 10870.730550 11172.314191 8259.514920 10672.710084 -2768.052153 13551.355838 13438.886388 12871.624596 11447.059150 11700.682323 10479.754822 12800.392389 7435.476267 11279.729814 10999.576807 7706.680613 908.354398 4333.794788 13185.219965 12568.711150 11727.154393 13041.221107 12633.769860 9405.617325 10504.948221 12516.766245 11966.859770 12575.149359 9547.623559 8032.627672 9144.011728 12790.159869 12292.776935 12443.940953 13484.288700 11678.168230 12016.248583 10894.989946 8017.277828 10404.358727 9015.224586 10772.851740 7443.733619 8474.889752 12433.115796 12528.489691 13790.123399 14996.964691 12796.538408 12556.892457 12148.998915 11038.101166 11219.883736 8059.567743 11041.555779 9075.566479 2242.540087 12059.425288 12328.842977 12685.999452 13295.676284 13687.758104 10438.079769 10746.414864 9273.835162 11081.829319 10903.489632 12561.553326 8700.087131 8985.377985 11837.543157 11300.251335 11012.862188 12462.324537 10277.114899 10850.977515 12556.298159 10620.580858 10489.621576 12838.124305 11762.338343 9489.201122 6093.168673 11750.548764 10913.025991 10182.846949 11420.671397 11062.930968 11871.275029 11456.414440 10510.051797 12164.131452 11483.964635 11252.904598 10481.568364 4068.398305 11531.772744 12069.393031 12207.019008 14315.941100 11902.373968 13358.128631 11999.097671 9199.199640 12341.425154 12348.872949 11238.767514 10472.374815 11006.298486 11082.377013 11753.677671 12143.136315 11740.182327 12324.442055 16627.579882 13508.459858 12067.096127 11415.762544 12126.049624 11469.004181 12578.721000 11468.603703 10829.368588 11120.875009 11313.615177 16382.574623 11696.834472 12598.031313 10577.283431 14934.624076 15559.473455 13410.821788 13593.991167 11258.696239 11028.731450
</DataArray>
<DataArray type="Float64" Name="Velocity" NumberOfComponents="3" format="ascii">