<VTKFile type="PolyData">
<PolyData>
<Piece NumberOfPoints="2177" NumberOfVerts="2177" NumberOfLines="0" NumberOfStrips="0" NumberOfPolys="0">
<PointData>
<DataArray type="Float64" Name="Pressure" format="ascii">
 21065.567389 21060.975692 21113.638396 21294.893264 21498.618777 21431.515444 20943.733842 20267.199082 19533.385118 18606.696386 17458.241660 16131.038074 14699.295920 13065.101093 11164.305090 9135.085894 7120.672375 5420.514499 4384.231124 3959.078360 3618.717243 2915.831445 1883.393523 712.491702 -518.703706 -1666.393760 -2552.802765 -3113.242360 -3397.830433 -3486.616528 -3446.614880 -3327.903921 -3164.312516 -2976.751578 -2777.838584 -2575.361042 -2374.332913 -2178.103724 -1988.947892 -1808.392468 -1637.415865 -1476.580705 -1326.130301 -1186.062817 -1056.190308 -936.186853 -825.629428 -724.037437 -630.926116 -545.918105 -469.039468 -401.387075 -345.907385 -306.065909 -282.270472 -272.074130 21197.524077 21096.943363 21036.165975 21267.501548 21777.760038 21855.243410 20976.041411 20060.180896 19557.361096 18847.214375 17857.357078 16416.732247 14936.550667 13255.394567 11175.548107 9227.618613 7159.121072 5185.764357 4161.250849 4202.182385 4354.195763 3699.151002 2462.425946 1245.909778 -50.522137 -1372.045896 -2404.788590 -3033.898410 -3358.293454 -3472.571845 -3442.210379 -3326.491900 -3163.812043 -2976.571906 -2777.802558 -2575.405705 -2374.429220 -2178.234563 -1989.101520 -1808.560218 -1637.591142 -1476.758444 -1326.306586 -1186.234524 -1056.354547 -936.339597 -825.761416 -724.121160 -630.874401 -545.458175 -467.359947 -396.881918 -337.239741 -297.028496 -275.157978 -266.538979 21455.146201 21216.199887 20810.113765 20330.941864 21642.213321 22770.925853 20401.953057 18660.676985 19734.708846 18753.511517 18974.934683 16981.494870 15400.645590 14275.359462 10918.512384 9819.772135 8060.887787 4668.249672 3550.448461 4305.728418 5587.402864 5475.091743 3147.849289 2185.374078 736.638274 -906.310495 -2192.643886 -2902.565216 -3284.127392 -3457.620730 -3439.851815 -3326.395402 -3164.003478 -2976.697366 -2777.832486 -2575.361864 -2374.333847 -2178.104183 -1988.948074 -1808.392528 -1637.415861 -1476.580623 -1326.130008 -1186.061848 -1056.187125 -936.176414 -825.595194 -723.925191 -630.558232 -544.710914 -465.115671 -387.832758 -316.729529 -279.503037 -262.977129 -257.307476 -275.165676 -258.111062 -250.980746 -236.850484 -230.762930 -227.240259 -199.766987 -198.302799 -196.928568 -169.928805 -169.536471 -169.055877 -144.447727 -144.366093 -144.180945 -122.465765 -122.472418 -122.384163 -103.480484 -103.510313 -103.455530 -87.121164 -87.154773 -87.113533 -73.073837 -73.105609 -73.071504 -61.059102 -61.087599 -61.058388 -50.824868 -50.849915 -50.824650 -42.143512 -42.165306 -42.143445 -34.810240 -34.829080 -34.810220 -28.641746 -28.657944 -28.641740 -23.474869 -23.488727 -23.474867 -19.165211 -19.177010 -19.165211 -15.585712 -15.595709 -15.585712 -12.625202 -12.633634 -12.625202 -10.186968 -10.194046 -10.186968 -8.187339 -8.193252 -8.187339 -6.554328 -6.559245 -6.554328 -5.226338 -5.230408 -5.226338 -4.150947 -4.154300 -4.150947 -3.283775 -3.286525 -3.283775 -2.587453 -2.589698 -2.587453 -2.030676 -2.032501 -2.030676 -1.587356 -1.588832 -1.587356 -1.235861 -1.237050 -1.235861 -0.958348 -0.959300 -0.958348 -0.740168 -0.740928 -0.740168 -0.569362 -0.569966 -0.569362 -0.436208 -0.436685 -0.436208 -0.332845 -0.333221 -0.332845 -0.252947 -0.253242 -0.252947 -0.191449 -0.191679 -0.191449 -0.144315 -0.144494 -0.144315 -0.108343 -0.108481 -0.108343 -0.081005 -0.081112 -0.081005 -0.060319 -0.060400 -0.060319 -0.044731 -0.044793 -0.044731 -0.033036 -0.033083 -0.033036 -0.024298 -0.024334 -0.024298 -0.017798 -0.017825 -0.017798 -0.012983 -0.013003 -0.012983 -0.009431 -0.009446 -0.009431 -0.006821 -0.006833 -0.006821 -0.004912 -0.004920 -0.004912 -0.003519 -0.003525 -0.003519 -0.002505 -0.002509 -0.002505 -0.001766 -0.001769 -0.001766 -0.001224 -0.001226 -0.001224 -0.000819 -0.000820 -0.000819 -0.000501 -0.000502 -0.000501 -0.000230 -0.000231 -0.000230 0.000032 0.000033 0.000032 0.000328 0.000330 0.000328 0.000707 0.000710 0.000707 0.001234 0.001238 0.001234 0.001995 0.002001 0.001995 0.003114 0.003122 0.003114 0.004759 0.004771 0.004759 0.007167 0.007184 0.007167 0.010664 0.010688 0.010664 0.015694 0.015728 0.015694 0.022855 0.022902 0.022855 0.032939 0.033002 0.032939 0.046980 0.047065 0.046980 0.066308 0.066419 0.066308 0.092594 0.092739 0.092594 0.127906 0.128092 0.127906 0.174737 0.174970 0.174737 0.236011 0.236298 0.236011 0.315048 0.315394 0.315048 0.415456 0.415864 0.415456 0.540931 0.541397 0.540931 0.694913 0.695425 0.694913 0.880073 0.880609 0.880073 1.097564 1.098082 1.097564 1.345979 1.346418 1.345979 1.619975 1.620243 1.619975 1.908470 1.908441 1.908470 2.192392 2.191892 2.192392 2.441898 2.440700 2.441898 2.613062 2.610878 2.613062 2.644004 2.640473 2.644005 2.450493 2.445174 2.450494 1.921082 1.913450 1.921086 0.911888 0.901331 0.911901 -0.758834 -0.773010 -0.758792 -3.316102 -3.334654 -3.315966 -7.033371 -7.057056 -7.032925 -12.237172 -12.266563 -12.235711 -19.311058 -19.345967 -19.306279 -28.699080 -28.736709 -28.683451 -40.910368 -40.939293 -40.859262 -56.530994 -56.511335 -56.363916 -76.265106 -76.061361 -75.718927 -101.077197 -100.223444 -99.293505 -132.845440 -129.545342 -126.990977 -174.356654 -161.914064 -155.811712 -199.567597 -178.490622 -168.854386 9582.803096 9243.954284 9116.992647 9647.827300 8501.592022 7699.551854 8624.391672 9549.290621 8488.576959 5209.051205 4049.839431 3956.588112 2274.591354 1016.948140 378.852635 -42.815570 -349.988552 -603.484982 -842.612558 -1086.527150 -1338.917353 -1594.567199 -1844.731774 -2080.432156 -2294.027161 -2479.721551 -2633.551846 -2753.178998 -2837.644997 -2887.147327 -2902.838308 -2886.642726 -2841.088118 -2769.146465 -2674.088992 -2559.356419 -2428.446043 -2284.815707 -2131.803568 -1972.562119 -1810.004975 -1646.765260 -1485.164886 -1327.194246 -1174.501876 -1028.393138 -889.835412 -759.462429 -637.555088 -523.920233 -417.482139 -312.893768 -225.347909 -189.144543 -173.437688 -167.198299 9632.831983 9497.711781 9399.776992 9341.094562 8538.778431 8015.179210 8423.963892 8224.029493 6701.736131 4706.315783 3498.545432 2643.727213 1758.685538 961.670849 372.820203 -42.009580 -348.947402 -603.011314 -842.550848 -1086.606008 -1338.953047 -1594.477943 -1844.502193 -2080.079089 -2293.578574 -2479.206434 -2632.996507 -2752.606251 -2837.074281 -2886.594947 -2902.317594 -2886.164130 -2840.659339 -2768.772642 -2673.772967 -2559.099037 -2428.246464 -2284.671703 -2131.711786 -1972.518326 -1810.004276 -1646.802314 -1485.234138 -1327.290275 -1174.620106 -1028.531804 -890.001643 -759.691987 -637.977574 -524.985366 -420.689344 -325.562450 -246.974026 -202.400459 -180.763190 -172.283507 9661.163943 9565.157471 9447.581425 9261.219464 8716.516461 8127.592615 7765.815190 7133.898203 5981.947469 4597.910069 3405.458442 2460.889235 1633.264792 920.084028 363.395413 -44.478059 -349.407343 -602.784106 -842.164919 -1086.297920 -1338.813841 -1594.524148 -1844.714871 -2080.425795 -2294.024845 -2479.720730 -2633.551560 -2753.178901 -2837.644964 -2887.147316 -2902.838304 -2886.642725 -2841.088118 -2769.146465 -2674.088992 -2559.356419 -2428.446043 -2284.815708 -2131.803572 -1972.562132 -1810.005015 -1646.765393 -1485.165324 -1327.195682 -1174.506591 -1028.408612 -889.886181 -759.628956 -638.100998 -525.712750 -423.291294 -333.347152 -261.350087 -213.389017 -186.993635 -176.210578 21712.192506 21534.628099 20847.095054 19087.658634 20821.364420 23031.722699 19926.958633 17760.743992 20127.080444 17487.679376 19710.974897 16961.692211 15611.998863 15562.003743 10277.647092 11574.609145 10149.016668 4394.459362 3989.585707 4775.146033 6464.126053 6609.872329 3786.629895 2970.655906 1977.117739 -285.427933 -2123.902090 -2847.770880 22560.808079 22935.939339 23070.446593 21905.891952 23149.327063 23948.265349 20738.489407 21924.257644 22010.338164 22347.195633 22665.607182 21791.685162 22422.857411 22700.805516 20221.397263 18521.860184 23043.569618 24542.081546 24288.175952 21823.557600 20523.076859 23064.601771 22446.295403 24360.957674 20442.778245 17925.042354 8045.932892 4805.401714 23513.534925 24398.136604 26498.948488 25240.777813 19087.670460 21128.052068 20912.848679 17946.424654 21026.495188 16060.168016 20348.627651 23667.446948 20514.038360 21020.182660 20812.709577 22099.784895 22994.774710 14686.891960 22837.517340 18999.132494 19220.661864 23172.649152 22947.094769 20341.860683 16489.050435 12715.733876 14914.360410 12473.739434 24079.460482 24975.082416 27283.665069 18603.479976 15192.590657 21051.598717 17081.324390 14121.045731 23370.421802 19341.382253 24816.759945 21931.040316 23222.391149 16122.246870 18434.579674 7142.965173 14818.872522 5431.954357 20669.709496 20622.597737 16373.651439 20984.672639 23835.308918 15590.990255 16753.613151 18537.087246 15579.504395 7689.068642 24318.613199 24185.326750 23874.231955 19445.447999 18598.102880 20389.350853 20474.164438 23113.104863 22737.592160 21428.446877 23565.821662 10229.627684 12769.637436 13630.645122 16261.350626 19158.333591 19527.332394 22268.915416 19993.443131 21866.160987 14312.908993 18933.591493 11385.323607 5966.170249 2444.800000 13591.010144 14748.588047 2030.503884 24575.098284 23735.740131 22170.019349 22208.031507 20391.954128 14916.607407 20795.645248 20640.480796 21394.280967 13631.336092 9845.245126 18717.526904 12359.823766 12874.911066 11861.758706 16539.672759 10486.800788 4005.260020 6935.012522 5918.958031 15450.541514 11828.021890 21620.030943 13140.562415 14783.469792 12493.442374 4775.897863 9157.528741 25165.267132 25341.935123 25018.774894 21657.663910 18957.849899 13798.155504 21106.656676 10580.313646 18720.294157 14160.423516 18011.323582 20420.673683 13903.135152 11272.751651 12739.536760 10831.931860 13982.882047 6947.832815 15314.106015 16535.407848 21772.516636 9281.024097 7216.278294 9809.026870 6722.652367 6340.190782 5762.781132 646.023558 25596.983726 26309.017710 27235.097314 16467.035218 24769.603777 21307.428703 18336.690992 7405.758460 20092.873209 6605.429064 7656.449140 12874.514405 17107.357849 14632.700532 21631.163583 14608.321032 6360.015624 14728.143816 11982.318492 10824.110569 8212.841283 16731.065810 7344.384530 16179.035940 17928.055986 11491.304784 7664.209456 4848.339795 25333.999436 24830.553279 23485.739140 21063.957767 20782.412038 25665.289890 18802.978329 21642.356880 22777.282640 22119.711685 22269.305353 18236.104126 18500.074490 11850.717011 9105.242303 22145.889533 12926.653208 16582.336768 6555.697032 6772.127801 11422.764643 9239.997973 6196.377002 10670.359382 13097.535947 7361.514692 12192.895386 4900.398158 24894.560373 23222.858036 20606.353644 20974.454489 23114.253808 22548.279162 22403.112522 15716.517561 14534.037698 12802.403942 12018.284494 8990.062461 17087.274328 16830.970794 7319.282072 9771.445384 7563.092437 13385.726397 7413.712546 18943.230421 6871.589015 3670.415418 7599.826649 12098.573501 6763.439882 4443.172692 7016.210938 10991.939056 24850.004560 22862.721648 22371.719647 23723.086916 23120.860735 22932.429409 15009.977950 21788.400254 7254.649931 21272.199088 10348.006086 18386.531845 6695.943286 5694.806526 14804.228077 10187.216682 8761.222427 12980.470601 10919.982364 9730.796966 9382.671069 5954.640335 9095.092801 9220.586852 5098.856261 13749.093088 8549.953214 8677.896389 25093.162519 23327.533009 23635.865659 24143.344928 19224.958687 23639.642518 20670.002145 23081.241030 16452.851106 12998.731530 9832.119683 11984.193804 13711.920736 16883.295624 10551.618699 12264.366510 15872.031408 3468.842090 3624.067768 6267.006368 12313.277855 15710.849720 7303.242787 11103.958922 5614.542373 10304.099832 5609.277842 4792.286317 25186.325995 23808.421842 23786.251438 23442.967701 23508.886185 17829.724279 17106.458533 18434.326362 11966.032064 17879.529244 14467.677797 15535.786437 14398.448165 3996.863043 11727.417475 4164.831289 12057.265743 7646.398979 5528.775288 17075.855860 9773.282633 5964.779922 10646.690196 9808.748793 7708.412087 3986.188617 6718.294704 6344.295255 25046.685986 24346.848920 23798.352360 22286.265919 20949.367063 22149.999097 24920.820670 20175.152211 15614.542755 20209.148547 11982.285284 6023.695500 4340.178739 4300.547219 4148.580833 4280.014344 9855.673702 6259.776641 6194.667118 5367.733759 5674.801771 3921.054612 133.880792 12836.007108 4881.314460 6387.946474 9385.027899 5653.365439 24768.489175 24825.680901 24336.685567 21957.444919 22537.395142 22956.173130 22778.123213 20752.680714 20488.369370 15147.337389 10483.876523 8454.380341 4471.381298 1184.118762 5677.528275 1678.630862 5164.328370 3803.681813 2315.632667 3478.152860 5218.020217 926.913149 1890.953161 5892.590695 10042.611420 1552.219958 8065.740609 1716.698610 24479.888860 24786.804183 24177.763357 22759.863622 27144.003089 20002.249708 19339.067082 17604.365863 14588.277559 12514.577320 9588.396445 -2582.004992 1894.006314 24221.507870 23767.041648 22614.603735 21156.838760 20776.074855 21407.968682 20006.112602 18616.044110 18414.868559 7120.142681 5459.076553 4101.035134 2349.121557 23998.055120 23101.142508 21786.407570 21059.805506 16578.419427 12592.833765 5468.961993 17376.443635 10031.187655 8069.603947 9131.828814 9319.647010 7455.579443 23687.787265 22881.332992 20463.949740 20520.529928 19448.134817 18115.536463 13652.442133 13273.503550 5355.319765 7871.412017 8625.121367 4457.505685 6878.047764 23399.487116 23213.310517 22434.703794 21155.389672 18746.014017 14514.629519 12520.892551 10200.478486 7660.363528 7971.461241 10825.775245 4864.331507 4496.747445 23025.141989 22114.113966 20235.035006 20672.441762 20252.412648 20271.492131 11998.922945 16959.199445 1279.359095 4451.321093 10588.531713 5011.154453 5159.536235 22560.878363 21699.109722 20746.038857 19925.229435 18131.188252 20778.179338 12230.783337 8407.230045 9358.592013 12806.923726 10372.679695 3593.600162 4119.409656 22285.352454 21797.276176 21294.965084 19137.547352 17853.550755 1990.010783 6568.969965 6285.340601 2381.531020 9651.300250 6570.945423 6261.797334 2897.258075 22350.950022 21969.053526 21233.687533 17852.047474 14508.399129 10277.750747 12106.088252 13266.608105 9791.300597 7334.258458 4535.342059 4475.473870 3450.705493 22406.814541 21438.247078 19347.994946 21238.639961 17259.425333 15741.992515 18282.419779 9522.322880 9973.705012 7454.954155 8593.248057 5441.157215 13250.513470 22162.168789 21656.731848 19846.548058 20640.202376 15250.352602 15029.955589 10240.409268 9119.707940 8365.492773 13612.068930 7748.356965 7015.817518 6888.792175 21522.894487 21055.415981 19970.908169 17864.633042 20496.543143 15872.793485 15093.856186 12299.543326 8833.325762 8614.887177 10852.162734 2357.981272 5328.152980 20768.592120 19889.003996 17453.390695 20048.473202 15872.169790 17657.776858 13867.092431 14559.323984 2992.181678 12581.699855 12428.411259 2887.972304 3383.521256 20269.623970 20062.550707 19382.699370 17490.676972 14920.171575 14535.258166 16723.054718 14799.407490 5096.938551 15520.671528 6860.257839 3581.067929 3267.064205 19911.209850 20033.235552 20268.668366 19088.037321 16713.344280 15491.867488 19296.440274 18914.160941 10070.405014 14887.909016 4563.741337 5143.241392 2397.118274 19750.138471 19487.387179 18707.090349 17652.238015 19833.871057 19957.739158 18159.823888 16994.772169 12195.499031 14403.252128 5672.335669 2476.972864 2742.489475 19827.539320 18954.633107 17210.820077 15324.745816 19883.664638 17134.338463 13830.070081 15273.419877 7747.931021 7899.990769 2824.089765 3041.950796 5084.550084 19909.183666 19611.764693 18983.504081 19477.527043 17821.203469 15327.179640 14494.701310 12707.284786 9791.541438 16562.216776 5148.936123 2771.504959 6986.671531 19781.892392 19552.210952 18014.958981 17734.098253 19018.672902 18020.944596 12323.861498 11695.906482 12604.566522 5696.087590 8252.796749 9581.670483 5025.847278 19626.968539 19816.198140 20045.463675 19236.506387 18245.038479 17021.001583 18926.899297 6962.311532 10008.659291 12409.620348 12962.947322 5202.914707 3203.861891 19348.306125 19446.767866 20134.966561 19126.471769 17431.607793 18021.273495 16488.364270 9896.478589 14772.645116 7821.136453 4099.490360 4583.713823 4020.706354 18987.500128 19060.767499 20508.298404 18486.560986 19007.706037 16752.087570 10627.012040 10040.733634 10585.030863 6738.324611 7558.476329 5063.844541 1672.181164 18715.633553 18081.363281 18315.613238 18382.027524 17591.661944 17793.367163 14072.412596 8338.824794 13170.394231 7571.814408 6607.719860 3818.484143 3212.411041 18746.580253 18523.281119 19277.540274 18253.266288 18870.885197 12205.262039 16950.038002 10809.580450 5910.251820 5177.509990 5600.183494 5608.898916 3071.870891 19102.123870 20233.203781 22187.326759 18654.289915 17174.926041 17368.568289 11221.533107 14365.543325 7151.529085 9048.197383 9194.528183 5784.855443 2760.756410 19369.075061 20455.510901 21374.347923 18219.335890 19788.991541 8854.189999 12390.068031 11691.497259 14493.304468 10403.132041 6197.951430 7789.686781 4217.869969 19241.183044 20238.866291 20711.168399 18296.410145 18160.638083 18225.518559 5862.234243 17481.003236 10777.417031 12353.283702 4962.069096 3805.550314 6529.539145 18767.879864 18905.427558 18732.827897 19912.646941 18501.288107 17137.382701 8589.573111 13533.561331 8075.098004 9101.957166 9317.486517 4477.016312 2882.962399 18374.143861 17409.095691 16678.220545 18006.776127 17830.506719 10830.991911 14225.198839 14927.292387 10486.477128 8288.017675 3870.545862 4148.162163 2678.116952 18151.875690 17968.488948 18224.939214 17370.200597 19255.442841 17026.628533 18189.404896 16089.144872 8640.982707 9335.064489 6378.832304 6489.198850 1841.670624 17741.931258 17974.863251 18528.873405 18734.622146 19270.898471 9894.564707 12738.170124 18199.772521 17194.824166 9531.033049 10436.493441 6010.506593 3187.458489 17370.796746 17651.698853 18098.381423 16933.371888 16524.407105 11319.797674 14147.558581 14140.980588 8369.648992 4953.065992 6036.685959 7143.275976 4004.230816 17166.229430 17383.379321 17825.089863 20489.362308 17371.581640 16259.687781 13209.819598 13427.561332 10755.045641 7244.111367 4128.296010 6673.923418 4828.579740 16936.768190 17185.275345 17270.312213 19857.584191 14578.418327 17084.572673 13896.216181 13127.697906 11676.205077 11867.293001 10219.902635 4799.129258 3320.693084 16685.872654 17083.173956 17776.319264 18695.576426 19156.143193 13024.187607 15003.672746 13608.837468 9067.389745 10839.581360 11266.943427 3926.229442 3446.630791 16344.775462 17023.697518 18526.481752 18336.869954 17312.206016 17370.690846 17184.511606 11515.253939 8452.444932 6644.100785 8416.905340 5419.486138 3633.373592 15951.644290 16902.882104 18391.901122 18743.467585 16870.497147 15634.951641 14752.787960 15651.471257 9944.737616 7441.482878 8473.688847 6603.929006 2186.125548 15666.484388 16801.045241 18789.545793 18465.775263 18413.988903 15077.464556 17187.428168 8535.123048 6148.749871 7703.255082 3859.339632 6281.224781 3640.932864 15522.968223 15941.394434 16986.993536 17749.768032 18503.997157 14856.120009 8206.923713 7961.472196 6451.387831 9200.835712 5133.011074 3127.480501 1018.997244 15582.519884 15603.667646 16194.034431 17641.666197 15840.574244 16558.508197 13649.415254 7223.202458 12423.422711 3688.336974 3707.741982 1417.166659 1302.873138 15685.511576 15524.181666 15319.234831 18336.014272 15881.601564 15437.978203 14804.238657 13527.989214 10426.950172 7137.766565 5741.960185 5522.247402 2415.908620 15608.125494 15468.802400 15091.764293 16628.934742 17537.926019 14753.534348 12112.150032 11817.081126 12647.208687 9156.132274 10778.550350 4167.734348 6042.999320 15379.357307 15697.678270 15917.068129 17627.027765 16966.705502 15295.994821 13267.493791 13281.519457 11592.832175 4471.250243 4947.969770 9067.270264 6123.985621 15057.867556 15683.285228 16892.872213 18719.113699 18159.889309 16173.862804 12445.638553 8726.786832 7066.126992 10817.243601 4167.146424 2171.654156 1183.893057 14645.194218 15395.089317 16703.235752 17161.102470 16164.065384 12969.654069 9329.296819 12997.510362 8982.237607 6407.429885 2959.717858 3624.934536 714.980720 14320.793549 14825.934985 15679.381388 15358.949757 17281.234536 15795.607583 10314.717579 11344.885392 11184.468362 8051.855282 2703.413649 3289.225106 5102.909330 14257.002004 14068.834251 13965.031880 16023.360466 14201.229494 11539.986773 7391.689675 10212.727559 8386.004620 7289.499944 6583.815725 3789.379096 2198.296892 14287.308325 14100.003727 14492.889196 17846.143683 15769.950774 12432.557777 13610.067547 11243.627894 6253.320276 3666.088632 1880.833100 4729.512284 3031.973118 14195.953512 14370.676493 14991.658344 16295.655789 16073.583572 15353.568839 10162.436011 7732.386316 8335.148785 9787.105688 3639.210585 1785.804398 4390.748460 14153.000814 14821.657737 15779.567442 17118.367450 15160.896589 14546.357225 15355.827473 12226.589901 9314.605247 6878.683513 3161.253639 4494.535403 6528.034747 14343.436817 14844.234168 15300.548022 16090.555082 15285.473712 14064.382464 13602.727993 12421.220084 2662.154634 4185.697159 6466.538961 3446.521923 8800.602411 14658.832476 14865.894133 14567.767167 16532.169120 17309.694589 12769.069990 11056.458599 10980.997672 10422.923456 8472.059439 5599.411731 3965.312437 4244.671249 14834.520826 14546.080052 12856.504169 16257.767311 16882.818199 16351.960365 13578.157354 11383.042935 9188.374683 4817.443016 8597.866852 6240.601989 4867.775917 14819.421641 14278.219853 12901.243325 15959.793330 17550.960513 15901.537900 6066.959655 10772.503661 7074.651379 3275.068825 7588.600685 4219.551145 6405.631872 14589.996034 14112.626737 13394.341662 15295.671011 14748.263700 17106.259231 10186.871411 10857.259042 9069.870646 5996.697273 6926.141766 3723.161686 7850.599379 14173.282565 14125.137096 13899.121021 15942.768193 16758.861363 14761.141431 12007.108182 8281.017235 3743.325152 7261.400921 3948.971318 11087.294272 10267.035234 13867.308448 13960.371335 13632.093582 13937.707458 13176.307558 12043.410786 10865.268044 12080.181943 6867.020488 6868.524604 6301.068209 6878.530036 6877.021441 13812.756440 13957.145879 13975.770672 15245.807851 13648.674729 13882.438268 12773.066504 9684.768581 9081.662354 2736.540951 3304.067901 6763.042496 8412.341452 13843.073284 14314.635933 14213.147756 12984.516036 12888.162066 13081.580044 5992.915704 7882.568379 5117.485785 3961.886903 2784.874094 10320.429342 2263.714911 13776.199454 14208.794295 14242.552859 13342.544137 13381.497584 12036.259378 11038.864502 6837.635773 9429.854263 8709.766473 4794.626018 7135.345385 4619.258191 13574.889678 12735.975303 11830.364618 14678.750210 12080.675648 10211.048799 11221.481668 10748.090274 10150.855830 9704.740834 3104.827821 3562.950021 3133.438889 13493.975473 12983.190885 12205.982216 14123.324990 13428.162673 13839.946840 11203.283081 5275.366037 7128.209563 8027.179960 6949.053432 1707.292982 5436.920099 13625.572827 14043.080184 14240.308541 14089.070246 13530.505783 12479.679052 11676.126196 10219.214831 10512.428901 6516.033656 4883.278128 4612.571511 9909.393091 13636.082412 13966.572947 14400.512847 13301.802304 14550.516392 9873.083904 10386.687065 10084.350417 7895.325248 10929.096427 6939.928645 6383.391098 5553.832655 13378.174307 13701.744384 13905.342847 14355.496083 11659.059307 10811.901885 13598.068380 12099.750124 8027.475372 9137.646087 7471.447138 7741.406577 7368.964168 12919.389504 12989.493157 12906.742303 14716.936911 12098.971793 15243.948919 10695.645081 11043.514879 11539.420092 10908.194804 11644.332577 8925.879427 4727.098896 12291.718800 11449.392144 11042.979617 14602.755756 10944.123031 14695.547386 9478.471661 10631.009235 10205.713976 9638.863541 5985.321588 7290.765116 8497.098642 11753.355257 10269.633860 9298.603098 13736.416332 15775.084005 10647.633787 13750.103294 12392.213376 9527.278353 9127.950461 9778.306664 8896.287283 3954.346339 11661.341854 10310.374662 8732.617235 13340.192573 11924.207870 13060.730849 10789.339481 11757.432057 8769.154263 10764.152013 6198.454780 6786.179262 7998.448306 11879.534183 11743.841947 10282.156073 13713.260073 11804.234984 13065.859976 10477.415143 11283.830728 8725.653529 8982.132884 5356.652611 11159.509358 6795.171216 12107.322554 13529.193224 13871.299305 12399.408467 10284.798229 10211.647431 11709.158653 14283.910980 11366.136366 8622.798256 3693.361213 5600.060628 4454.732133 11993.664252 12808.964634 12974.928499 14100.919770 11719.173391 11950.228026 13716.293409 11346.442984 8864.830550 11903.446924 9043.320037 9167.946243 5541.369125 11527.203583 11105.510912 11093.843167 12853.181925 9990.673732 10566.207055 11366.565400 9748.379584 8356.009651 3511.650098 7823.024479 8569.508200 4157.686807 11091.223559 10187.578036 9559.235270 10839.267772 13140.396947 11920.304269 5145.393862 11344.142136 6365.903442 4771.162460 10353.927032 11147.919817 7800.494086 10812.418217 11095.091704 11775.869223 12622.424921 10676.289909 9141.822935 10408.322937 7047.077683 7452.919704 7342.053170 9275.927623 6809.629111 9150.441840 10527.633793 12269.623962 14472.330771 10307.412096 10792.178061 8639.973337 8546.473793 9470.003021 5750.937595 8681.930072 6324.219296 3445.739150 5857.695965 10374.915242 12747.015135 14664.597589 12832.220482 9828.315232 10304.110913 12219.967428 4626.156308 10700.527385 7063.725198 6748.454198 5300.684795 599.767567 10585.453624 13015.361486 15832.931808 12320.336110 10678.763598 11712.820356 8034.382531 7891.073655 10979.459908 9121.149484 7835.650044 4586.675785 7720.449852 11008.146887 12976.134877 14651.840869 11099.210080 10625.775854 6422.616973 7882.108695 8079.862500 9719.838750 6929.063443 4618.678588 6317.302301 4250.048956 11241.429997 12655.480741 11766.976118 12369.725914 13189.548203 11605.347147 10941.565729 7625.379386 10421.594849 3750.829697 9876.563161 8015.566736 4660.394956 10894.135061 12374.381872 12358.114263 9707.846032 9470.319138 7768.739116 11089.871293 6811.595887 8222.701857 13067.473842 8528.877072 9376.544076 9428.586697 10107.534526 10447.402903 10475.522401 11595.365764 10375.578513 10806.046691 11460.066838 11433.351142 7574.390024 8659.379946 11257.222863 7148.357826 5021.437538 9573.614396 8282.960822 7763.346701 11882.543593 8784.553159 9144.781141 10619.868169 9699.152796 10197.538663 10307.651195 10913.459730 11090.394964 2336.419754 9414.748979 7344.407485 6286.946031 13630.479713 8226.629639 11019.571913 12068.944986 13504.307310 11508.132953 8021.443739 10445.875781 9523.152631 8260.599533 9477.164065 8343.730129 7473.460563 8547.531620 11940.547752 11774.791163 9779.594657 11301.171371 10321.487544 10801.079873 14962.205751 10762.056320 10776.926459 9582.803096 9243.954284 9116.992647 12790.505598 12868.108853 12458.767832 13381.031716 13303.219618 13776.056794 12839.244174 12178.618807 11036.958705 9029.032164
</DataArray>
<DataArray type="Float64" Name="Velocity" NumberOfComponents="3" format="ascii">