<VTKFile type="PolyData">
<PolyData>
<Piece NumberOfPoints="2177" NumberOfVerts="2177" NumberOfLines="0" NumberOfStrips="0" NumberOfPolys="0">
<PointData>
<DataArray type="Float64" Name="Pressure" format="ascii">
 12902.227721 12925.574935 12844.422362 12547.102143 12044.999351 11334.782759 10386.410102 9306.727943 8304.518715 7591.436974 7246.065386 7240.213620 7180.686034 6299.468456 4128.700747 1477.660097 -157.972534 -531.761748 -768.156221 -1344.584327 -2245.592539 -3316.539711 -4109.589311 -4453.534701 -4490.488791 -4376.074048 -4191.477279 -3963.372417 -3696.312386 -3399.890083 -3092.414745 -2787.946872 -2494.147272 -2215.252231 -1953.801521 -1711.341315 -1488.705857 -1286.165585 -1103.533847 -940.257396 -795.496322 -668.194482 -557.140900 -461.022683 -378.470141 -308.094854 -248.521583 -198.415684 -156.510236 -121.645132 -92.853147 -69.543550 -51.705183 -39.525582 -32.475277 -29.481091 13293.560905 13467.428948 13508.276792 13168.422492 12809.556233 12247.617941 11107.514504 9874.289738 8971.642402 8545.722776 8305.667791 8313.331225 8451.241830 7822.808306 4860.416293 273.277450 -2316.007116 -899.982940 -258.540165 -714.914579 -1621.291146 -3365.308702 -4494.958758 -4689.906768 -4600.509655 -4429.401454 -4226.269535 -3998.712914 -3724.688261 -3412.746873 -3097.194951 -2789.682146 -2494.904552 -2215.714893 -1954.181295 -1711.698420 -1489.053762 -1286.504169 -1103.859702 -940.566931 -795.786612 -668.463423 -557.387155 -461.245549 -378.669358 -308.270189 -248.671725 -198.534809 -156.577062 -121.589396 -92.460911 -68.402230 -49.525694 -37.433940 -31.012503 -28.456028 13914.700478 14452.989639 14737.387979 13479.330260 13409.402772 13845.199738 11407.282825 9897.634277 9420.528734 9726.048064 9020.810839 8987.267006 7860.219950 9173.847485 6184.455457 402.324665 -5398.175243 -1228.336276 690.697539 475.385662 -478.011980 -3756.575925 -5251.753327 -4999.135922 -4735.362227 -4492.879807 -4271.781450 -4064.553072 -3789.627980 -3431.932682 -3102.243350 -2791.012847 -2495.101590 -2215.549373 -1953.894019 -1711.370104 -1488.714816 -1286.168372 -1103.534713 -940.257664 -795.496399 -668.194488 -557.140840 -461.022457 -378.469378 -308.092306 -248.513087 -198.387367 -156.415923 -121.330668 -91.816190 -65.884755 -44.105305 -33.295881 -28.530682 -26.762977 -32.744571 -27.940331 -25.811240 -24.294829 -22.630983 -21.590401 -17.340894 -16.941812 -16.555421 -12.627966 -12.522671 -12.390407 -9.191885 -9.169251 -9.120516 -6.655788 -6.655359 -6.634334 -4.784340 -4.788985 -4.777894 -3.411261 -3.416222 -3.409325 -2.411731 -2.415861 -2.411149 -1.690440 -1.693616 -1.690266 -1.174626 -1.176984 -1.174574 -0.809125 -0.810841 -0.809109 -0.552513 -0.553745 -0.552508 -0.374005 -0.374880 -0.374004 -0.250970 -0.251585 -0.250970 -0.166947 -0.167374 -0.166947 -0.110090 -0.110384 -0.110090 -0.071967 -0.072167 -0.071967 -0.046637 -0.046773 -0.046637 -0.029961 -0.030052 -0.029961 -0.019082 -0.019142 -0.019082 -0.012048 -0.012087 -0.012048 -0.007541 -0.007567 -0.007541 -0.004679 -0.004696 -0.004679 -0.002879 -0.002889 -0.002879 -0.001756 -0.001762 -0.001756 -0.001062 -0.001066 -0.001062 -0.000636 -0.000639 -0.000636 -0.000378 -0.000380 -0.000378 -0.000223 -0.000224 -0.000223 -0.000130 -0.000131 -0.000130 -0.000075 -0.000076 -0.000075 -0.000043 -0.000044 -0.000043 -0.000025 -0.000025 -0.000025 -0.000014 -0.000014 -0.000014 -0.000008 -0.000008 -0.000008 -0.000004 -0.000004 -0.000004 -0.000002 -0.000002 -0.000002 -0.000001 -0.000001 -0.000001 -0.000001 -0.000001 -0.000001 -0.000000 -0.000000 -0.000000 -0.000000 -0.000000 -0.000000 -0.000000 -0.000000 -0.000000 -0.000000 -0.000000 -0.000000 -0.000000 -0.000000 -0.000000 -0.000000 -0.000000 -0.000000 -0.000000 -0.000000 -0.000000 -0.000000 -0.000000 -0.000000 -0.000000 -0.000000 -0.000000 -0.000000 -0.000000 -0.000000 -0.000000 -0.000000 -0.000000 -0.000000 -0.000000 -0.000000 -0.000000 -0.000000 -0.000000 -0.000000 -0.000000 -0.000000 -0.000000 -0.000000 -0.000000 -0.000000 -0.000000 -0.000000 -0.000000 -0.000000 -0.000000 -0.000000 -0.000000 -0.000000 -0.000000 -0.000000 -0.000000 -0.000000 -0.000000 -0.000000 -0.000000 -0.000000 -0.000000 -0.000000 -0.000000 -0.000000 -0.000000 -0.000000 -0.000000 -0.000000 -0.000000 -0.000000 -0.000000 -0.000000 -0.000000 -0.000000 -0.000000 -0.000000 -0.000000 -0.000000 -0.000000 -0.000000 -0.000000 -0.000000 -0.000000 -0.000000 -0.000000 -0.000000 -0.000000 -0.000000 -0.000000 -0.000000 -0.000000 -0.000000 -0.000000 -0.000000 -0.000000 -0.000000 -0.000000 -0.000000 -0.000000 -0.000000 -0.000001 -0.000001 -0.000001 -0.000002 -0.000002 -0.000002 -0.000003 -0.000003 -0.000003 -0.000005 -0.000005 -0.000005 -0.000009 -0.000009 -0.000009 -0.000015 -0.000016 -0.000015 -0.000027 -0.000027 -0.000027 -0.000047 -0.000047 -0.000047 -0.000081 -0.000081 -0.000081 -0.000138 -0.000138 -0.000138 -0.000232 -0.000233 -0.000232 -0.000389 -0.000391 -0.000389 -0.000646 -0.000649 -0.000646 -0.001064 -0.001068 -0.001064 -0.001737 -0.001743 -0.001737 -0.002811 -0.002820 -0.002811 -0.004509 -0.004524 -0.004508 -0.007172 -0.007193 -0.007168 -0.011309 -0.011338 -0.011297 -0.017683 -0.017716 -0.017644 -0.027431 -0.027441 -0.027296 -0.042253 -0.042133 -0.041788 -0.064765 -0.064118 -0.063172 -0.099284 -0.096656 -0.093834 -0.154331 -0.143954 -0.135606 -0.246339 -0.205287 -0.184339 -0.313674 -0.240767 -0.207977 14712.110578 13868.135708 11143.009679 13808.122506 18731.456908 14315.706340 15748.111620 13478.540195 11279.982593 10903.544844 12253.280004 12407.679863 11717.590048 12474.476569 13047.858593 12545.023043 10112.541577 11262.442376 12635.306577 12610.130037 8068.128877 8718.457555 7311.679544 4308.015870 14461.812738 18734.014530 9234.891816 -1716.097553 -6362.018528 -238.529264 13925.686869 11395.768797 12521.625767 1879.857698 3960.775827 -338.469972 -1651.533062 -3137.054713 1347.688642 6127.975013 1075.392611 130.508676 8.542546 -8.143628 -8.560785 -6.751046 -5.015488 -3.645739 -2.606843 -1.825077 -1.231330 -0.752557 -0.407395 -0.277197 -0.223689 -0.201999 14601.375321 14047.206126 11980.265792 13039.116217 17983.371956 15434.912310 14528.947533 13111.416806 12107.208521 12325.410250 13190.052370 14145.221988 14479.708327 14761.870156 15292.223866 15818.181367 15224.057691 15214.613103 15394.275487 14769.155206 13099.065708 11859.471286 10666.226661 10337.130338 12112.386625 9958.966226 4702.716822 2142.047740 2757.353582 4984.245826 6965.743688 5880.843873 4116.265489 1763.205838 461.177701 -321.802324 -425.439938 282.231905 1326.550092 1244.676729 477.477427 86.881836 4.866422 -8.483981 -8.597886 -6.761772 -5.022696 -3.651453 -2.611827 -1.831049 -1.243573 -0.797691 -0.478759 -0.314436 -0.239606 -0.210712 14775.426839 14426.606194 14024.418178 14250.183046 15054.144875 14704.227477 14854.892224 14709.513381 14182.591699 13913.985656 14224.798840 14835.647426 15404.578712 16002.246597 16703.260747 17219.101297 17276.230457 17118.420364 16809.384581 16108.943575 14951.463570 13604.502352 12227.511865 11108.978233 9757.413192 7325.738612 4925.076727 3862.412776 4049.066214 4649.764061 4681.465436 3984.346120 2581.797902 1205.411906 392.331252 146.686771 363.982789 737.231446 879.633087 596.129048 234.023609 53.387783 0.665796 -8.980579 -8.650097 -6.760656 -5.016623 -3.646316 -2.608489 -1.830686 -1.250242 -0.822692 -0.524917 -0.345580 -0.253635 -0.217387 14223.357030 15145.224957 15681.720334 12914.005794 13131.610846 15062.784100 10634.905583 10009.822905 9402.973706 10178.697792 8253.392326 8086.719986 3943.424613 8873.672515 5801.748141 4952.682582 2634.516821 5759.123163 1847.749675 750.679315 -832.330838 -4618.261580 -5683.260538 -5097.716073 -4773.655261 -4510.484733 -4286.203984 -4097.549706 14712.374635 16034.304951 17198.904687 15103.087777 14622.768919 16060.505170 14653.426830 12127.147308 14907.505430 16765.635980 14132.933553 11582.783688 17250.571681 16506.051349 14833.308716 12266.123150 19596.455811 16971.153014 18068.147560 14249.175097 11216.007634 12967.782095 14166.047596 15764.336566 14744.912038 12009.559627 -5750.198722 -784.082831 15017.577216 16540.318252 18940.633301 15707.149136 10191.204977 13044.135868 13504.746397 14198.375229 17401.612644 13494.410393 14069.524735 17933.750686 9053.973548 13036.352978 8402.273303 16630.845046 12587.133093 18497.451433 15014.194954 14829.098574 11836.918408 12514.195169 12469.053005 11017.506360 14786.621966 7998.581805 11718.051906 6172.931993 15065.564576 17597.456450 21671.843054 12646.436124 15543.497397 11934.632971 12203.941445 9324.697104 15059.740672 11706.108513 13169.460243 14840.201360 9875.563223 8395.337774 10731.824516 4127.677877 9059.369946 4067.466759 11158.641929 14742.069253 4862.952947 14407.077097 14639.082863 12475.020977 11695.408736 9861.740209 8458.491960 2983.705227 14731.755265 17079.032029 20849.121170 15716.752307 14445.753927 12826.346655 18024.038118 15630.019664 15586.066119 14207.218460 11535.721597 8307.835066 13942.084603 6386.542583 13716.355248 11339.357390 8744.709984 12913.266688 7089.539570 9159.737554 3639.473662 12041.631057 3355.469330 4544.271416 4395.669651 6757.586018 5036.669784 -7285.148990 14355.378596 15179.117063 16629.441440 15178.161547 14736.468318 14998.559674 14184.327261 13982.584810 12357.247737 10410.242526 6972.480288 8113.671203 6839.044975 8158.697439 11186.864685 9744.165304 6192.702567 2009.975585 1406.426987 6315.962270 9512.044014 5087.845468 9166.695422 7845.931953 10837.761226 6408.065601 5409.482815 38534.174935 14509.082143 14622.008128 15531.013370 15110.040358 11795.498721 11153.157258 12429.228539 10540.718071 11317.505438 12289.245453 10981.515396 13568.801028 11637.713636 5395.348859 7276.987270 8177.669076 11674.418517 11439.155488 11999.762258 8864.876982 5565.618406 3070.983433 1962.773958 7510.359264 6436.202179 5532.760869 2038.743521 7337.497022 15055.350118 15051.601265 15420.206554 12319.983635 14077.606626 13144.656467 14826.295986 9570.935055 12677.122061 9397.231527 8283.824765 7818.421835 8614.470774 14460.036886 14082.723523 10206.636686 6639.258605 9131.344646 8338.067455 6665.397594 6711.945661 9210.106285 4269.382669 7511.319524 6333.369217 3826.260454 2929.116272 -726.376259 15506.033842 16058.862561 17186.617680 14609.212574 12086.023542 14296.929821 12106.249397 15351.321720 17423.022247 12804.322674 12786.017507 14437.002766 11410.064975 11382.584437 8663.745074 11123.751333 10741.275354 7766.041058 4181.316577 6590.518131 5889.375001 6623.255055 3546.809588 6637.813960 8145.273477 1447.392938 7397.997959 2363.446641 15643.205245 15977.451354 17034.037081 14433.507582 15591.895244 14193.624659 18471.520792 13485.632085 12443.538917 11915.697425 10799.942228 10427.837814 10365.894200 11756.627394 7289.310705 6689.129105 4617.887595 8683.528742 6247.049764 7772.718895 5333.527303 3476.313105 4809.343079 6820.249297 4167.101856 2312.451167 2904.331263 5179.099876 15728.516669 16105.811430 17748.559596 15351.817654 15496.688442 15763.096521 11730.269904 16903.753785 10588.883533 18460.780308 8779.786840 12954.736383 6676.967462 4268.064084 8708.759602 8947.272205 6752.886208 7353.430525 5542.621847 8487.686709 7749.069927 3177.197185 4800.685042 6455.161433 2929.387117 4407.581725 6683.912377 5270.337664 15770.334126 16348.559103 17157.972335 16192.942848 14502.970309 15494.883371 13953.896852 14330.509892 9052.715679 11120.476082 3235.455326 12019.996835 6723.177519 11520.667858 8973.531508 10326.049853 12045.016214 587.090151 1626.861151 4285.902498 7245.775747 11141.848578 2007.709827 7157.644527 6464.078217 2588.353477 2023.891889 2754.563064 15741.578861 16156.639396 16351.746881 15539.933628 16585.273807 12456.575552 12423.334057 12580.525627 8547.158258 12401.553986 6327.258968 10154.146524 9756.535033 515.445095 7308.653432 1415.913780 5679.596772 1120.234753 6090.029893 12080.091724 6550.946697 7679.723183 8338.389255 5180.835064 1185.062221 1488.212445 2514.081620 3461.994919 15746.203411 16454.374022 16950.539421 15187.341354 15742.379186 17052.683572 14168.019226 16209.576197 11761.581979 13016.628710 9216.676870 2871.546446 2819.052807 1047.111890 993.067375 3957.547141 5079.623411 892.301162 2636.590050 1404.995053 3298.438311 711.470563 2412.949847 7043.211601 1793.518896 3553.954403 2836.960963 1216.700037 15757.056382 16335.991724 17113.717038 16103.948138 13448.645876 16302.221578 15219.331518 11563.907182 12433.792570 11428.962243 4572.275554 5593.714081 1578.798566 1801.070173 1683.337723 2112.242394 2487.159203 835.102202 2196.115441 2789.997189 1414.888330 2377.032723 2434.579504 1351.921937 3013.247110 1515.120420 1455.116410 3729.562442 15776.179621 16529.095700 17617.741356 17420.003786 15529.513671 15029.189902 14678.113947 13169.193027 13517.788444 7424.916103 3288.588339 1960.625276 627.508543 15608.271584 15897.017487 15907.910389 16462.523963 15573.231003 16492.001257 14149.044585 13268.717588 15103.995016 10911.610188 1968.061174 914.763714 1621.001759 15392.594496 15170.886338 13914.112074 17036.237545 13722.101654 12342.754197 8698.872211 13906.296905 4485.020889 2519.479897 6738.884135 3247.119607 6434.203049 15319.532412 15253.116012 14520.704234 16094.990456 17968.178590 15561.947188 11533.502759 8261.968093 4188.628580 4387.562676 701.298196 1879.470815 3491.765035 15357.986847 15096.967468 14399.313854 16986.672623 13542.935782 11150.381629 11321.954712 5847.271421 2651.755387 3630.169680 6774.453935 369.661544 2338.381792 15760.142166 15893.167250 15037.613143 16490.791190 17326.036390 16791.273848 13246.142725 8442.148833 2166.037038 1501.597434 7528.733839 2830.132420 4058.371190 16380.879952 17623.850028 16518.201752 16668.345347 15124.681426 14372.899930 8930.352343 8699.951228 2347.431133 5473.485630 5357.313153 979.241152 716.127527 16573.977277 17775.792243 17964.376610 15224.486625 13346.821341 6489.509996 5549.020629 5460.146175 4736.733526 5440.042996 3523.698915 1438.127610 311.951901 16279.667195 16530.859247 15995.059299 14314.981718 13083.386336 9729.986876 8866.622688 10598.478638 10279.134723 5138.361730 4724.469435 509.072764 1779.026353 16264.210480 15920.937413 14246.869981 16663.405746 14021.392057 10464.554188 14568.350291 8010.193679 7201.908140 4704.316251 4806.289325 6547.101323 10001.414910 16804.694669 16213.353455 14209.259322 16441.937339 14330.272304 14675.097972 7303.507996 10346.246427 6986.016229 10054.203784 3362.823882 5256.217103 -20767.070111 16916.621375 15365.719166 12067.195637 15520.877496 15363.091296 12866.464080 10841.808417 9442.555785 7247.422685 7112.861068 8634.807535 631.743346 3068.817811 16534.228520 15406.613497 13494.425041 17600.399946 15703.779671 16898.284825 13851.498725 13309.396586 1437.155441 3206.998664 5578.518042 3541.511919 890.820352 16436.934913 16226.749912 16228.971714 16155.671342 12795.743317 13527.595742 15063.823921 11126.823523 2877.306889 13523.489331 5484.428216 5588.638262 2889.787713 16579.371021 16637.870006 16764.185389 17876.992971 15007.843558 16006.797471 12888.383094 14668.512942 12104.215392 10881.446319 3651.559723 5538.942712 1409.535778 16696.837664 16475.078154 16127.631832 18277.686738 17842.447814 16741.234407 16091.029268 15543.355558 16042.368377 11964.022285 7096.279751 1220.995700 1614.807038 16752.985619 15764.622042 14416.778471 13595.888449 18214.501784 16515.677186 12675.934642 16762.186354 6035.745397 7465.208638 3397.206598 4093.800609 875.580528 16746.903203 15168.576176 12963.206383 17640.504859 16728.253718 15212.322981 14536.101626 10461.585274 11128.648250 14954.935718 5185.941262 5346.902467 11698.806022 16799.355537 16159.582631 15116.819769 16901.845151 19022.927609 16826.950280 10863.038099 14055.754586 9239.414562 4371.160051 8488.496795 5276.427613 4093.951911 16913.362162 16616.966158 15982.599241 18636.678260 18531.817115 15130.835710 17236.128691 11881.836076 9800.009186 8382.071562 6810.927680 6158.810301 86.619557 17091.447477 17297.745394 17190.503770 17336.111718 16081.108456 20611.191810 15696.988092 7367.270011 10403.962287 9241.951826 5857.127688 1429.775282 1644.413018 17169.289641 17318.477007 17569.564509 17631.968873 18345.339137 15043.874980 13845.672998 13225.660838 11308.938147 7038.565281 7512.524644 3197.859379 2151.462711 17053.194859 17174.518630 17474.197104 18861.852129 18760.887601 17662.837090 12954.965724 15655.361605 14896.720742 6422.297033 3960.611726 1900.453163 706.664052 16838.875446 16736.784791 16478.306887 18386.120767 20656.489752 14030.619906 15103.901254 10579.246464 8117.418342 9746.111301 4211.167002 3626.225839 1597.088847 16652.490603 16329.188239 16031.320330 19222.038513 17405.908353 15634.339741 7914.696367 10200.049474 8454.462832 6017.904616 4511.632978 2678.059751 461.121754 16440.839806 15655.097869 15572.040928 18896.869583 19983.142706 10476.869423 11019.706157 9198.530993 11396.776050 5830.967603 3292.368396 2385.953577 625.486684 16318.915071 16045.679169 16342.209842 15395.822151 16638.988587 14779.753251 9521.276394 15122.203724 7472.618949 10147.891268 2148.200132 752.708508 -398.968831 16492.816363 16672.917781 17115.481614 17933.035355 16063.411124 15290.888643 9537.886221 7838.622566 5817.708348 4827.546499 3878.465586 3875.839513 190.168711 16988.263362 17405.629253 17682.420379 17268.732126 13960.732548 11112.277415 13766.908094 11438.734496 8376.140294 4674.396162 2649.051947 1098.063279 1170.869486 17605.094676 17966.287396 18226.417881 18330.778858 16665.293428 14996.498283 15482.043838 12753.819448 7004.052901 6932.525236 3213.404775 3419.270585 669.852285 18112.552668 18358.162696 18271.784538 17052.009550 15717.495403 13143.745816 10175.224763 13813.126316 10492.949995 5822.784726 4709.469172 3569.557821 1941.549828 18269.559501 18207.376106 17658.025444 17387.324422 12468.451263 10346.661714 14209.072364 9808.279211 6036.582432 1879.059821 4097.009120 5180.029375 -1163.091449 18122.876076 18112.244909 17628.101776 17605.274060 17871.534608 18398.476148 7655.697240 7981.520108 6993.180777 3229.056678 1520.302780 4853.993789 463.206606 17951.864865 18376.750440 18749.396293 16291.056030 15995.235234 14637.321289 9810.154065 8293.564569 8931.400265 9251.097360 7957.637219 1635.436770 -267.994840 17949.755758 18271.066050 19323.445745 18090.331457 17384.429264 10598.002076 10307.437977 10326.425336 7752.969462 8224.833494 6516.190222 148.101808 1762.971321 18146.437363 17968.005117 18503.960933 16783.521898 17385.800723 13383.902013 12110.187067 11319.812048 6076.866019 4814.585496 3940.073487 2032.146110 1996.399871 18360.294327 18036.886935 18267.156710 17833.107038 14641.707297 12047.382723 11624.210084 13668.042244 7037.727953 4367.538245 5066.455467 3547.851958 -667.773548 18530.535589 17800.800221 17482.012232 16458.477425 18072.413624 16510.615643 13394.604375 7384.271989 4907.149891 5778.520458 4399.589930 2283.329936 1595.743011 18802.550512 17313.884890 15340.590536 14362.111270 15010.891856 12241.876153 9607.350634 6256.745023 5062.641451 8727.183387 2679.219954 -734.111500 -3016.994197 19131.301332 17774.131694 16829.902943 14604.116099 12354.959209 13157.148957 11125.797566 6370.788511 8106.606289 4264.865140 191.223420 2519.484215 321.965241 19333.979247 19145.715469 18943.003815 15294.271324 14513.609852 12503.382332 11515.682796 7751.055060 8642.833234 8351.864289 5284.067096 2108.598097 794.645538 19448.714338 19337.007701 19428.519548 13663.261515 14654.414287 14171.064113 11343.725329 12010.194215 9620.935687 8105.582702 4701.481593 4884.134018 4814.151298 19584.994626 18927.031578 18536.555641 15666.609222 15744.388813 15958.773545 11581.978882 12271.359244 9741.867220 3311.326287 5561.701939 1205.776680 3958.200081 19861.381665 19654.049492 19120.697151 15382.615976 15606.560312 15835.265428 10918.523045 7376.358747 8942.487911 8779.940106 3260.472636 681.558334 310.358510 20330.449027 20154.774882 19140.208553 17128.415683 15564.183513 10504.339752 11961.938139 9820.844484 6396.495115 4753.269705 1850.043299 661.048405 4671.011649 20767.294148 20420.196375 18405.053484 14809.544498 15286.363304 13968.274554 12972.141711 10490.490010 8098.838067 5283.293556 1433.311950 1336.170053 1564.206189 20847.578795 20359.329421 18443.185755 15383.209169 15548.801768 12690.232124 9634.327899 11369.267684 10137.291696 7348.533001 3325.596327 2476.168848 133.933214 20644.029746 19603.792805 16930.630493 16598.617515 14541.352507 11627.909331 14503.095348 10932.293895 6715.491996 8205.085065 2689.999219 4884.897174 731.565828 20279.763751 19298.999733 16615.733416 16113.420841 16413.814446 14213.507096 14635.622482 9415.392367 8340.496169 6271.481520 1832.808210 2513.732311 4198.521731 19996.798410 19007.452484 16963.664604 15976.881893 15525.154900 14613.906094 14005.303297 11301.300159 9072.580786 9706.697299 3705.343720 3125.713148 6131.585715 20290.036870 18721.220581 16149.506699 17570.121721 15715.128237 14564.114298 13360.412870 13056.033330 7800.889165 5122.245029 4740.098753 3478.498727 -6379.782597 20982.382068 19482.071691 16491.681390 17012.040472 16507.985132 15495.189631 15366.209174 13338.756160 10132.652116 7662.402596 5641.807897 6551.170575 4203.749515 21337.915440 20268.525029 16358.901601 17249.361167 17568.643818 16091.553539 14191.522707 11517.162986 9585.811322 6220.450285 3428.202066 5639.129434 -2586.776444 21205.563654 19585.267863 15888.433110 16652.755831 16614.310839 14059.327837 11220.942686 9900.381202 7156.921117 3982.103797 6529.023600 2204.599711 5432.927114 21110.594802 18892.464059 15421.669068 18929.853916 16612.522609 17265.653360 14189.552871 11633.592426 8078.111689 7028.945077 4752.969539 -1978.394619 2398.524940 21352.571225 19139.925838 15831.979597 18236.427690 17872.869531 16831.438460 11851.868387 8930.387019 8728.916894 6653.437063 4455.391367 7795.149142 -12353.518152 21504.070085 19921.834452 16957.051241 17534.854482 18875.154905 14587.580896 11811.302811 15308.576194 11160.716023 8547.995912 5671.016779 3081.996651 -463.786372 21267.177589 19751.859044 17982.421608 18739.880455 17084.067111 18121.964830 14968.099695 10862.611159 11230.822961 7692.589282 5356.838188 6516.970001 -5410.727011 21168.368171 19578.567605 18306.996253 18152.482774 17555.997849 16725.437541 15645.090730 11962.942832 4947.872032 8522.845837 6477.679610 5429.092078 8483.389793 21543.157641 20567.592956 18965.295682 18654.530555 16526.826468 15083.435931 15585.476063 11414.405704 8214.500773 7975.000344 7155.337632 5734.029237 3087.122676 22002.097014 20936.946259 18211.690200 19827.367078 17963.977768 15017.950477 13599.741088 10261.465766 9969.581419 7653.357680 5141.069033 3975.255563 1021.610327 22328.813695 20725.681587 17701.851356 18205.859973 18037.817655 15427.459218 15631.836942 11519.427674 9964.675620 4646.191195 4643.270583 9418.206245 1470.967877 22589.247062 21082.051983 18597.670311 20305.324916 19518.466359 17295.578185 14299.891442 12023.763807 10827.898452 9203.298072 7368.099503 4901.816471 10685.540390 22698.640830 21842.769548 19427.508479 17441.901247 18938.289725 18037.252691 13869.932130 14787.612868 11924.051863 6277.925412 4599.974757 -3.328561 6124.994853 22679.212910 22046.039084 20066.218335 20808.790524 19662.756216 17753.403174 15877.673972 13805.247417 11364.667103 8089.138395 6494.121412 4544.608064 4295.041163 22787.401282 21963.917973 20617.405177 17954.655872 20385.522454 17343.985073 15931.144423 14961.840645 10468.679922 8790.269953 7291.241525 7037.029879 7565.632994 23089.947142 22056.759964 20432.190154 19645.326383 19458.090352 18453.889815 14959.602168 14932.183127 14845.197537 11501.689308 6380.008797 3491.206364 1253.633642 23471.803734 22287.857804 20639.097854 22192.453340 20285.282785 18544.483631 18502.238291 16484.153585 11990.493036 6217.506513 6510.207895 2994.689915 -20767.070989 23808.379557 22446.616842 20707.212263 21633.549391 18872.656418 20951.521985 14955.812852 16851.462637 11213.674901 9673.849981 9485.844461 5937.208424 9965.223516 24052.952902 23148.208027 21766.579588 21319.641319 21057.524802 21787.865758 15974.414609 15172.663400 12430.778483 10417.611129 8688.436549 6482.703157 531.721302 24228.038416 23950.780526 23231.783506 21657.228418 19777.558974 19870.944309 18345.170707 16582.717423 15096.594359 14673.154999 7393.659219 2676.894299 -10895.855516 24373.574803 24577.057451 24084.874873 21051.253504 23218.317393 19591.910698 17730.846931 14982.144890 13300.085963 9424.346345 7158.590197 8932.318252 11295.369349 24465.791182 24088.106740 22284.736389 22489.202088 18211.883251 18801.334671 17063.648981 14326.090886 10810.868250 10022.242502 4636.710952 4987.033274 10785.707056 24383.638834 23752.899832 22315.301941 19806.405049 18293.413334 17235.370924 13993.028432 14677.971010 10468.840149 10739.669574 6149.603728 9189.101140 7053.539770 24013.983068 23634.416523 21904.601246 20121.774479 19007.549894 18228.650571 15449.308749 15769.072825 12982.809986 9850.799833 8033.963509 6800.635582 10345.791465 23627.983265 23301.387010 21084.393067 20096.638470 16879.670374 16697.496549 12528.058701 13691.623465 10523.463458 8639.162983 7581.346199 8385.060384 -7461.112908 23165.941902 21624.286851 18012.499326 18381.556320 15734.497294 17747.214528 16396.357530 11851.408668 13592.524368 8581.711496 7088.737896 7070.137787 14081.103783 22556.932504 20134.034617 16223.492021 23106.544498 17617.316038 16351.488182 13249.964691 14526.507990 13134.774790 11587.885595 8504.770656 9280.891134 2797.530492 22018.251627 19773.099579 15928.713753 17623.336141 16114.160602 15657.746850 13684.642747 9700.640421 12476.423154 8621.350636 7672.682820 8828.050424 2216.522555 21046.049570 19768.685683 17006.039472 16349.946314 15990.424680 17869.109275 15808.184132 9784.514750 11514.360597 8875.600562 10289.230775 7317.788109 7989.481293 18824.099349 16892.166905 14578.045244 14954.024394 17382.983072 9426.829672 15318.260991 13984.070074 16749.945234 14314.558242 10049.918389 6771.573968 11224.026202 16324.371702 12499.148465 9539.643404 14907.944360 17864.746009 17490.371142 18947.910389 16956.021506 16148.638483 14502.123969 17525.862094 7139.980690 15680.693540 15397.173508 12897.220786 11306.690639 16456.683714 15801.098653 17488.564391 14968.454107 19487.413274 14817.310332 18707.683377 17872.574032 11894.912942 8347.919543 15663.110852 15236.558750 14960.204239 18203.324858 17441.277733 15965.032505 15387.637219 17683.058639 17561.923280 14556.442889 17347.597136 13142.520120 12904.753926 15283.741450 14730.432278 13837.549667 18465.369337 18233.544457 14888.342893 13840.373898 18953.203710 16326.201982 20154.182157 24005.028170 15559.788145 13865.421019 14712.110578 13868.135708 11143.009679 16265.253351 18529.443653 17315.409001 16280.568728 17608.950544 17952.071086 16878.259934 16123.218158 13506.971773 18565.637385
</DataArray>
<DataArray type="Float64" Name="Velocity" NumberOfComponents="3" format="ascii">