<VTKFile type="PolyData">
<PolyData>
<Piece NumberOfPoints="2177" NumberOfVerts="2177" NumberOfLines="0" NumberOfStrips="0" NumberOfPolys="0">
<PointData>
<DataArray type="Float64" Name="Pressure" format="ascii">
 12361.092024 12243.101168 11947.946637 11454.768572 10795.688084 9997.811497 9050.072376 7929.993018 6657.207543 5345.963323 4107.087538 3019.161163 2148.723523 1500.502683 1008.218543 597.513636 227.223135 -113.496968 -421.233983 -690.100815 -916.925955 -1102.126735 -1248.781909 -1361.404258 -1444.994144 -1504.471424 -1544.426974 -1569.076234 -1582.045082 -1585.887778 -1582.359960 -1572.935221 -1558.793816 -1540.730387 -1519.179068 -1494.293990 -1466.041488 -1434.285985 -1398.862820 -1359.635650 -1316.538095 -1269.600517 -1218.963535 -1164.880394 -1107.710571 -1047.907408 -986.003386 -922.599716 -858.376871 -794.173368 -731.266507 -672.059307 -620.932807 -582.924083 -559.800188 -549.889160 12467.269914 12333.787023 11996.529163 11455.120284 10754.291267 9914.904684 8947.334377 7838.411984 6529.831367 5209.343180 3974.536884 2854.308197 1983.962646 1387.625832 947.350855 568.455532 214.895377 -117.653717 -421.636862 -688.934451 -915.231985 -1100.377298 -1247.171168 -1359.988034 -1443.743920 -1503.270933 -1543.058104 -1567.387570 -1580.781149 -1585.324927 -1582.127648 -1572.821928 -1558.721538 -1540.672442 -1519.125244 -1494.239795 -1465.984959 -1434.226638 -1398.801175 -1359.572913 -1316.475896 -1269.540676 -1218.907840 -1164.830323 -1107.666776 -1047.868298 -985.960743 -922.524657 -858.175221 -793.550337 -729.348074 -667.073837 -611.231926 -572.216811 -550.761051 -542.469618 12621.569836 12492.604612 12300.424025 11872.981727 11336.836394 10289.393533 8793.890372 7725.001058 6146.676016 4871.619727 3715.780711 2517.344073 1696.649768 1225.860945 871.623583 534.241048 200.531530 -122.656251 -422.392269 -687.910173 -913.590062 -1098.641663 -1245.557555 -1358.558862 -1442.463288 -1501.975603 -1541.261796 -1564.179820 -1578.270974 -1584.803205 -1582.068366 -1572.857455 -1558.773557 -1540.725266 -1519.177830 -1494.293712 -1466.041433 -1434.285976 -1398.862818 -1359.635642 -1316.538064 -1269.600412 -1218.963196 -1164.879289 -1107.706977 -1047.895719 -985.965369 -922.476066 -857.974764 -792.864054 -727.039611 -657.622584 -588.981437 -551.643588 -535.152165 -530.001897 -544.950277 -527.499369 -520.683494 -497.614973 -491.245764 -487.860402 -447.308721 -445.780335 -444.406157 -403.166866 -402.746993 -402.267282 -362.602561 -362.509787 -362.325485 -325.150090 -325.154305 -325.064676 -290.631514 -290.664417 -290.605188 -258.941188 -258.981689 -258.933074 -229.975816 -230.017220 -229.973315 -203.618371 -203.658456 -203.617600 -179.737048 -179.775018 -179.736810 -158.188390 -158.223941 -158.188317 -138.821262 -138.854280 -138.821239 -121.480619 -121.511083 -121.480612 -106.010784 -106.038728 -106.010782 -92.258159 -92.283656 -92.258158 -80.073386 -80.096536 -80.073386 -69.313009 -69.333932 -69.313009 -59.840693 -59.859521 -59.840693 -51.528059 -51.544933 -51.528059 -44.255203 -44.270266 -44.255203 -37.910945 -37.924341 -37.910945 -32.392868 -32.404739 -32.392868 -27.607187 -27.617669 -27.607187 -23.468490 -23.477716 -23.468490 -19.899385 -19.907477 -19.899385 -16.830076 -16.837152 -16.830076 -14.197900 -14.204067 -14.197900 -11.946832 -11.952190 -11.946832 -10.026988 -10.031629 -10.026988 -8.394122 -8.398129 -8.394122 -7.009134 -7.012584 -7.009134 -5.837603 -5.840564 -5.837603 -4.849327 -4.851861 -4.849327 -4.017905 -4.020067 -4.017905 -3.320333 -3.322172 -3.320333 -2.736636 -2.738195 -2.736636 -2.249523 -2.250841 -2.249523 -1.844079 -1.845189 -1.844079 -1.507476 -1.508409 -1.507476 -1.228718 -1.229499 -1.228718 -0.998405 -0.999057 -0.998405 -0.808529 -0.809071 -0.808529 -0.652284 -0.652733 -0.652284 -0.523908 -0.524279 -0.523908 -0.418536 -0.418840 -0.418536 -0.332073 -0.332323 -0.332073 -0.261092 -0.261295 -0.261092 -0.202737 -0.202901 -0.202737 -0.154650 -0.154784 -0.154650 -0.114913 -0.115022 -0.114913 -0.081998 -0.082088 -0.081998 -0.054741 -0.054818 -0.054741 -0.032322 -0.032392 -0.032322 -0.014273 -0.014340 -0.014273 -0.000487 -0.000560 -0.000487 0.008733 0.008649 0.008733 0.012627 0.012522 0.012627 0.009888 0.009752 0.009888 -0.001443 -0.001624 -0.001443 -0.024117 -0.024356 -0.024117 -0.061842 -0.062159 -0.061842 -0.119497 -0.119915 -0.119497 -0.203376 -0.203924 -0.203376 -0.321484 -0.322193 -0.321484 -0.483873 -0.484783 -0.483873 -0.703036 -0.704194 -0.703036 -0.994357 -0.995817 -0.994357 -1.376604 -1.378431 -1.376604 -1.872497 -1.874765 -1.872497 -2.509314 -2.512107 -2.509314 -3.319560 -3.322974 -3.319560 -4.341675 -4.345819 -4.341675 -5.620789 -5.625784 -5.620789 -7.209494 -7.215474 -7.209494 -9.168635 -9.175748 -9.168635 -11.568093 -11.576498 -11.568093 -14.487535 -14.497402 -14.487535 -18.017112 -18.028624 -18.017112 -22.258067 -22.271412 -22.258067 -27.323221 -27.338595 -27.323221 -33.337297 -33.354896 -33.337297 -40.437037 -40.457058 -40.437037 -48.771078 -48.793710 -48.771078 -58.499526 -58.524947 -58.499526 -69.793191 -69.821560 -69.793190 -82.832438 -82.863889 -82.832434 -97.805609 -97.840241 -97.805596 -114.906983 -114.944850 -114.906941 -134.334248 -134.375330 -134.334113 -156.285482 -156.329631 -156.285043 -180.955686 -181.002450 -180.954261 -208.533055 -208.581142 -208.528425 -239.195575 -239.241110 -239.180537 -273.109856 -273.140725 -273.061025 -310.438394 -310.415607 -310.279838 -351.376261 -351.170741 -350.861412 -396.282641 -395.453981 -394.612264 -446.348834 -443.155356 -440.902842 -502.629331 -490.720840 -485.464298 -532.693421 -513.291019 -504.738544 18278.320628 18629.074953 20449.914974 21242.229084 20964.758680 22733.031741 23457.920332 20088.672349 18245.364199 19200.052085 17809.122377 17854.305574 15828.504776 15163.017839 17692.244942 16393.820929 15571.502106 15909.275365 15488.968926 14421.321812 14856.870176 13522.882944 15884.912368 17369.607361 18575.889765 11005.022765 4028.032874 1147.833762 -86.735634 -688.270642 -1046.439509 -1290.904307 -1460.827606 -1571.459930 -1634.505798 -1661.159122 -1660.989142 -1641.143857 -1606.507305 -1560.328423 -1504.855645 -1441.784439 -1372.514526 -1298.278590 -1220.200717 -1139.320573 -1056.600039 -972.914353 -889.010736 -805.362917 -721.745615 -634.069007 -556.337638 -523.062626 -508.716354 -503.447176 18297.117981 18620.219065 20627.833836 22934.877217 21688.623156 20623.573229 21387.430261 20750.635328 20278.783448 20308.356782 19633.891219 19090.420265 17720.789611 17056.111693 16886.251284 15973.854638 15035.550950 14159.377017 13017.217462 11966.989548 11093.609774 10275.573048 10115.847825 10307.468762 9591.397965 6330.730019 2996.001061 922.385603 -129.610338 -694.330194 -1046.013274 -1289.705271 -1459.767352 -1570.643043 -1633.908693 -1660.731476 -1660.679211 -1640.910850 -1606.324513 -1560.180543 -1504.734580 -1441.685948 -1372.436254 -1298.219219 -1220.160051 -1139.301131 -1056.612783 -972.997712 -889.293382 -806.280127 -724.735807 -646.010416 -577.784917 -537.889053 -518.394899 -511.003269 18345.873869 18600.699164 19571.269647 20979.523801 21153.512542 21147.135550 21819.903537 21944.743907 21635.797319 21218.133859 20580.002768 19741.852246 18809.146843 17998.002986 17279.401277 16412.127232 15455.905719 14364.347338 13120.805654 11875.638807 10705.570254 9628.657184 8713.054742 7782.534740 6388.166488 4291.394204 2190.516021 702.374500 -181.858303 -705.421418 -1048.499292 -1290.760607 -1460.618833 -1571.370064 -1634.478423 -1661.153210 -1660.988677 -1641.144215 -1606.507562 -1560.328546 -1504.855725 -1441.784588 -1372.514976 -1298.280049 -1220.205464 -1139.336027 -1056.650352 -973.078164 -889.543928 -807.101450 -727.346709 -653.578303 -592.037607 -549.865250 -526.332877 -516.785494 12709.131786 12668.763871 12772.735252 12651.271681 12333.776464 11237.746847 9207.348825 8047.163028 5849.999014 4560.695891 3572.816418 2049.949853 1306.236063 1161.687283 848.630317 524.609679 196.457303 -124.305803 -423.010620 -688.109272 -913.628311 -1098.623020 -1245.520858 -1358.514359 -1442.401663 -1501.850441 -1540.827897 -1562.675058 12902.703555 12751.724066 12631.232266 12863.338717 16385.004084 12993.371864 11040.712783 11272.947543 12797.561245 12993.412535 15231.570761 12899.703320 12488.723444 13759.029324 11795.535298 9868.122649 12028.329446 10515.982753 9664.878327 10257.440584 12244.671002 10278.550216 14055.924212 13655.542323 13614.804653 10913.839277 1663.342092 5493.253406 13041.174788 12374.569844 11440.677676 12649.101439 12648.148635 10462.412455 11383.259326 9815.389405 14922.259657 5572.879842 10057.966982 11764.009073 11863.157219 15271.024609 10109.380104 12812.338263 12717.733613 5661.305307 13449.794588 10398.247445 12978.749846 11281.714356 10718.466838 9371.214307 10209.236043 5965.308570 9269.120921 8000.539144 12958.029906 11875.136422 10878.482473 10342.149784 11245.422457 12194.429588 10614.803968 6386.843423 13189.219653 11948.559745 13806.982372 10109.235571 11469.969254 8325.843504 14631.569074 5379.884641 9507.542806 2625.377512 10892.501937 13937.779029 8858.860480 11184.933938 12862.035643 9606.515762 6596.066879 11351.127773 9433.510309 4804.538229 12619.655730 10582.703211 8861.294916 17061.013691 9414.785500 14770.326595 13370.912056 12051.786104 13477.280715 9718.941599 15511.717672 2257.939718 7092.728163 6784.258813 11615.961100 11135.243967 8795.026949 12565.514571 10964.669710 11747.474545 5968.641081 13003.099084 5226.913757 5118.231736 3140.780878 1058.960466 7145.099780 1579.072132 12371.648346 10256.270836 8151.376324 12885.203504 14745.613253 11594.003484 12674.869445 10687.703949 12083.379899 8698.297325 3841.361276 10265.701958 9731.490347 7794.815977 9696.195542 6970.524237 4601.180664 1901.828511 3684.871983 3044.336973 9037.444077 2236.962326 11792.144838 6619.358722 4182.503410 6614.588977 2976.433239 4206.083317 12686.669038 11638.209805 10890.638230 12820.487103 9123.425579 6468.774593 12582.361155 9478.422901 11868.557781 9499.085765 12202.377119 11362.673614 8413.307334 6939.016339 10293.962964 7889.087125 8344.831506 3936.197140 9594.534072 9184.969660 12614.030733 3770.680284 2734.122317 6486.570953 1055.808367 2084.357859 2241.869568 2690.636248 13107.685234 12230.563415 11297.939313 9095.618458 13985.540605 15548.642454 11330.449442 6850.792152 12785.894008 3469.767924 4747.925052 6988.180089 12072.056073 7668.490024 17475.466433 9716.101027 5219.685520 10153.243817 9991.571001 5944.063880 5485.611719 10581.647157 3050.170957 8678.637346 10066.939152 7319.297982 3521.150829 3475.437679 13198.999348 12616.950078 12429.819370 15643.826245 13252.441011 11889.394339 11779.537071 15516.168752 14188.061706 10404.529447 10976.986678 11283.732608 12740.432335 5884.838078 4434.373793 12005.060344 9785.683644 10883.260182 4043.800813 4956.742396 6332.488258 3621.015406 3704.483288 3283.690327 6857.238222 2358.853105 4876.394680 1471.805754 13134.025849 12709.720861 12607.500527 11951.732444 13380.515384 13448.363553 12476.624566 11244.104122 10173.573929 7305.989059 10156.067871 4410.511019 8395.903247 10147.291445 5912.825346 6481.401051 6458.157969 8448.857466 6048.100453 11040.938521 4489.353260 3860.964250 3323.674837 6839.610563 4064.371578 1789.883686 2193.132594 4619.900488 13147.601272 12783.738027 12564.369575 13646.521972 11249.292734 11239.895129 9489.913788 12363.070702 5238.442762 13024.044311 5325.805471 9537.978933 7115.127289 4073.174661 8679.396439 8292.745613 5166.447763 7957.602114 7624.707429 6837.046578 7231.186431 2733.320187 8931.353890 7395.959101 3772.720741 6220.305088 6574.727041 4132.548946 13158.390529 12791.511402 12571.918973 13350.501039 10494.517392 10939.065072 10384.077313 10557.309390 9121.564067 10246.061728 5286.081291 7051.285342 10780.263016 9848.616055 8129.477654 8175.587021 8177.355788 4908.815722 4131.802033 5643.975515 6814.939294 8747.618109 2935.167856 6147.428180 4618.828646 5171.649851 3989.713437 2792.020468 13155.749935 12525.906626 11119.058285 12156.832001 12372.648111 9256.051141 8691.429685 9967.780728 8039.851316 8739.301081 7266.303360 10545.693461 11367.742563 2646.789268 7320.870972 3775.857970 9181.059061 6163.765614 5136.048616 9501.075685 8959.325867 5474.620312 10826.279177 6459.349670 6818.400663 3136.258413 5420.984270 4435.879628 13210.145297 12276.826795 10032.970695 13491.273523 11280.757452 11248.702927 10588.804168 10024.692616 6304.581458 13516.577847 7670.989877 4122.963737 4361.426598 2615.824800 4387.752708 7082.021114 7203.022639 2419.835839 5474.567135 4883.850689 4603.809010 4470.509362 3561.084990 6995.043565 4411.014277 3288.800759 7843.927791 3175.799121 13191.586111 11818.249009 9298.901229 14233.901967 15447.505381 11427.373699 15011.721617 11053.651537 10289.810214 7113.857852 9907.536138 6609.175192 2912.946503 3936.585416 4995.826796 2964.892659 3665.267931 4256.063174 2973.466311 4267.265498 3456.508936 4148.490738 3596.071197 3774.568119 4845.162979 3259.016772 3437.619670 3447.335632 13159.106265 12561.163753 10975.956831 13799.737853 13090.162830 11244.421104 12815.004570 8859.578678 8054.567083 8379.034264 7728.513910 2808.504937 6152.531364 13262.875195 13552.895815 13185.111012 13815.192727 12081.429674 15144.138022 11765.797812 9758.056680 11716.021060 5924.253448 1948.875437 3978.955949 3610.077048 13389.945829 12847.170830 12310.029110 13547.841410 11292.446564 11297.522509 4000.549074 13839.137865 10169.842655 3099.666980 5240.847553 7996.023420 6533.946802 13398.225873 12146.884145 10849.861198 13503.144414 14389.910852 10398.237651 7945.023567 11376.767996 3395.754957 5804.547752 3360.493086 4450.110377 4905.629896 13519.227646 13065.121459 12391.438456 14824.932925 14210.488998 11914.665823 10520.866508 4318.306883 5677.348265 6844.521996 8685.145498 9722.666880 4018.577382 13776.676069 13719.105274 13467.058933 14437.162704 13985.836078 14557.030477 8340.599792 12709.645110 2113.808020 3495.044364 7341.561729 4215.642762 3853.653626 13883.441436 13340.374899 12705.038271 13207.241908 12234.746014 11424.547101 6480.086057 5935.497925 5157.664698 6791.344933 8238.057390 2165.261030 3751.321590 13837.939713 13327.187139 13052.166635 14341.966203 11225.603869 5376.437920 3562.650581 5781.303116 4737.930919 9451.818888 4714.137428 5212.959305 4554.352039 13745.475510 12661.166601 11303.331583 12793.042117 11136.570528 8755.614082 8843.763939 7962.627778 7281.306691 6845.767608 4329.445537 3765.708611 5017.154819 13735.923831 12233.450097 10988.746253 14550.918082 15330.911452 14064.389167 10896.495699 7492.890265 6061.900558 6720.960656 5064.730355 5210.338354 8209.079813 13709.308937 12638.609375 11814.527131 14433.763944 11253.925258 10886.501210 8091.008940 6308.981376 7604.636246 9790.478439 6755.078561 5329.526465 15100.724415 13643.653860 13591.514440 13341.520256 13462.109906 12817.361887 12020.888085 11083.323870 10924.076355 5121.091962 6588.459976 8055.449206 2970.266591 5724.857069 13705.958573 14121.441992 14260.243443 13463.267065 12546.871921 13349.514996 9477.423269 11229.551797 5067.484468 7877.725439 9280.459868 3392.572804 6312.091316 13847.775553 14783.132217 15568.284620 15715.034449 12002.532605 9277.403569 15443.791504 10465.962058 5173.680455 10467.802485 3154.092937 4553.174629 3738.907945 13878.411319 14675.924928 15608.605773 12825.158201 12342.944119 11327.532229 13461.240240 11672.743265 7800.911815 10576.790355 3858.711548 5497.442451 4133.650704 13878.442930 14018.968656 14245.591912 10214.769726 11142.926430 11608.832438 14462.821542 12387.450191 9024.456109 11044.909607 4353.353114 3869.616769 4887.423923 13795.223222 12600.074592 11194.106259 8108.693270 11147.940927 11214.096169 11537.043526 10915.914651 6199.828701 6629.418885 3765.010181 4477.743021 5493.490388 13495.928649 11262.789003 9681.033109 14486.708290 11944.552288 10122.529232 11148.027013 9625.857197 6851.804934 10430.427351 4574.599110 3235.805636 13946.638620 13407.755904 11814.103233 11361.876991 11992.269049 12362.830332 12303.712440 8713.923902 9122.085834 8793.536809 5275.993328 8375.860390 9700.353858 3002.633783 13809.570878 12487.904448 12162.447078 13339.701007 13644.726811 10768.375813 11355.691868 6783.759095 7818.429775 10478.663643 11018.744803 5146.717116 -22737.967430 14248.159732 12776.003932 11365.448835 15225.665511 10653.272096 11412.933668 10152.875996 5469.915201 10775.828899 5236.387147 2193.947920 4304.519153 3849.691351 14517.978646 13557.620949 11927.977007 12722.878423 11618.689586 14345.734460 5910.007361 10424.497959 7984.018719 4513.079108 6921.638470 6625.825975 7656.116342 14777.069632 14533.829956 13175.241768 14256.835936 12148.583173 10790.375019 8093.297521 7491.555850 6896.961742 5290.205671 6544.004265 6315.326807 10478.260543 15045.999851 15384.479424 14681.493565 10823.378740 12283.794888 11905.805219 10960.295391 8810.491066 5167.882315 3622.833754 3638.356366 6345.392845 2545.291163 15132.402579 15560.142036 14921.495502 13140.420234 12312.828930 13722.025256 7584.263051 11765.665755 5278.755705 7369.190739 8409.789868 8130.210266 8514.274771 15025.162564 15107.234627 13606.360978 12990.039616 13107.148055 7255.472885 10038.989860 8794.484003 10792.375681 9416.733953 8051.037748 9001.807557 7132.221449 14964.004536 14797.440608 13227.008923 13932.311366 12300.756686 13438.295182 4255.635990 15712.928961 7918.434051 10605.988526 6600.639592 5151.147595 28157.051580 14822.778075 14095.992069 12400.594060 14409.197702 14853.805726 12460.914712 3760.511787 11810.883444 5387.908384 6348.978796 10492.403542 8095.745124 6559.069980 14544.733422 13460.888885 11810.643686 13646.816524 13243.290613 12372.278418 13043.050765 11959.339129 7073.539967 10155.885462 6977.933454 5578.165296 3773.502973 14207.124905 13244.271702 12570.153321 17582.333017 16507.019383 13152.347041 14827.690262 11954.565209 6377.469742 7141.578643 4510.453856 5420.478113 5573.549064 13814.451043 12790.499656 12716.420267 14904.269709 18591.984548 6052.720489 8831.994848 12826.859678 13701.649080 10214.934933 9178.217488 7429.977597 8252.210281 13840.405880 13726.019456 14773.188549 13961.989696 12285.313360 7846.331362 10301.368636 13011.976610 7485.022675 5189.853620 7502.164496 10104.162795 9964.917127 14349.417814 15500.843463 15856.303010 14133.131227 14883.553828 12074.833398 8857.001850 11302.972575 11160.998115 7138.909668 4102.671511 12313.544844 4648.456408 14684.748968 16450.624787 16564.506603 14257.967671 14867.535534 13104.085711 12379.439857 10160.229760 10426.770854 11497.047216 9338.030404 6690.425069 5547.127065 14521.799926 16109.865770 16459.306803 15648.569267 14237.105577 12100.977427 13770.493146 11037.363457 9779.238311 11423.374558 14319.491869 6632.545434 10524.968037 14306.911151 14478.640214 15085.526558 16301.905358 18746.661649 13085.520656 13887.044563 14025.757943 8430.932328 7604.442140 6209.060192 9122.318482 10877.537610 14483.761815 13783.408818 13953.264068 16237.344838 15278.612113 14119.607430 12183.037272 14371.246618 10964.628522 10659.185025 6616.908917 9787.696714 5941.147034 14897.147455 14229.298102 13765.715109 15086.085490 14623.337863 13869.265205 16193.473020 9441.361627 13265.787353 7455.467538 7001.317902 11509.821934 3162.778466 15188.303530 15234.512768 15448.604240 16668.261617 14222.987893 14717.742732 9409.745649 6891.502008 7399.848946 12851.579105 8271.132038 4214.059363 7812.982311 15211.840019 16160.448658 17306.090993 14558.901444 12036.959171 14235.549088 12610.190941 9676.377777 10535.433501 9631.000158 7558.419731 6686.102296 8372.799048 15138.933618 15742.395627 16844.440760 15759.758345 17190.574479 12726.564957 13389.185798 11177.967371 9417.077842 10863.783628 11489.552523 10784.472431 9835.660558 15352.245498 15203.481963 14496.188632 14143.971623 15478.593510 14455.781698 12060.901275 11271.988586 14922.346112 13216.077080 12177.442639 10453.984392 10609.928792 15784.598803 16823.004678 16186.968591 16567.226785 14150.602734 18356.353873 14694.666783 13073.042180 16571.740659 10503.289804 10845.843419 12436.457840 13692.094509 15865.558798 15974.300125 14589.308655 17501.006712 15353.192259 13365.225848 13665.445981 12269.140578 11950.774262 12966.534016 9074.253050 5662.257607 4897.421673 15830.174121 14739.897573 12767.542108 17983.742794 17447.324481 13516.094618 14418.230253 15259.558048 14206.999128 12299.248750 10328.174455 -1660.429108 4621.921515 15956.125711 14826.766923 12924.614217 16486.083572 18946.862848 19537.747752 12618.018714 15571.870370 14315.096125 13877.941615 7970.788615 11795.372610 -662.574525 16195.744666 15860.142914 14630.997284 19339.364143 16161.789503 14003.125176 11783.813154 13155.311087 14362.527434 13753.465260 8118.007280 11784.734963 4187.502288 16401.895409 16504.153251 17343.186755 17068.557369 16449.188950 12447.407334 16123.486508 14587.528592 13603.189167 13002.340592 9370.751700 15403.297231 7522.250551 16637.897219 16926.231336 17088.911960 19869.498405 18930.776704 15577.248876 12534.453360 13891.964380 13262.923168 15126.692296 11209.950339 7267.315322 9978.392418 16945.954958 17477.733559 17318.378912 17366.029539 18114.398231 15909.948598 16720.992029 16493.976507 17875.031658 13723.696035 9416.802716 12024.148879 12341.376534 17213.425190 17800.247682 18510.715513 19510.889958 13960.695101 16280.950470 14854.334457 16551.244525 10869.781301 8144.316428 15084.062200 11834.583246 12054.247898 17522.800499 17416.177971 16759.475566 18181.914148 15945.732994 15230.928551 14944.816069 14903.161664 15067.841083 12989.660966 11972.774486 10830.700094 9297.976695 18038.144479 17334.884484 15673.875404 19915.559099 16855.602402 17741.960150 16754.554945 17216.670380 17080.072995 13204.066291 12826.958177 8626.834520 8711.621881 18381.929873 18327.622280 17477.832696 18026.925477 16993.124839 16371.644456 12669.384660 19150.880710 14013.534935 9059.414041 14990.817208 11428.247933 10017.271373 18238.298751 18661.180366 17914.927261 18640.679387 19500.421824 18253.924666 14781.172848 17310.774988 17356.744291 14290.448689 17100.653804 8029.620967 7760.730517 18161.953361 18316.987293 18583.413536 18101.306632 17890.399959 17553.283924 15983.980282 15672.055084 12715.912245 14104.256685 11154.948046 18670.089714 22918.837532 18475.159198 17650.354625 16076.427477 19402.792029 18429.609749 17513.333727 13088.086603 16580.787520 13379.980730 11338.357925 15441.017815 11203.644373 8737.916761 18827.748206 18360.345933 17215.064989 19566.275963 19128.489215 15584.737362 18878.936531 16620.171730 14344.663524 12692.552066 10691.980767 14850.865324 15841.568761 18877.582762 18564.496818 18093.300098 20356.668650 17196.091456 17942.973468 12545.897740 11233.527124 9775.306026 10541.198898 9427.981280 13571.619937 3927.048758 18976.535187 18915.364589 19378.805323 20065.807503 20335.202661 17800.120629 16393.263199 11824.464704 15985.654426 12906.477668 11130.876252 12668.668073 8539.938494 19370.270765 20054.083413 21421.993607 19411.429554 18479.170501 17130.567395 15809.114051 16674.858064 18358.599090 15583.148649 9417.368454 12771.771597 -2428.526063 19920.520974 20402.248386 20899.795238 17702.640601 22345.953672 20928.004856 17084.906543 15637.041510 14928.624272 13958.183511 8867.845015 13766.574199 18662.718046 20527.518040 21291.707857 21756.416590 18554.858935 20478.613085 19698.277304 16382.385038 16403.256039 17203.779470 9479.633871 9558.167484 7435.725563 10847.230262 20976.602153 21412.809051 20919.734880 22604.356202 18710.417279 13845.155857 17416.091891 17421.241381 13465.178798 19014.824568 11831.480210 9025.720190 15625.236283 21303.346149 21019.751908 19240.347599 19965.268577 19120.902582 15522.090103 18820.181574 20906.165639 14722.094668 19956.975709 11879.565634 12654.641203 12867.908689 21583.066758 21635.423264 20565.025671 17561.475148 22685.860838 18934.693104 12911.754734 19485.853826 20457.580988 16631.166454 14799.491051 13293.057800 8089.643326 21508.188992 21871.289209 20804.435996 19711.883820 16809.944833 21627.943940 16113.647616 17608.677948 13047.595255 13241.912389 13135.123370 10416.596288 11548.275803 21077.667020 22259.601260 22361.682253 20409.362245 22106.964786 16538.516263 23904.559896 18542.331871 14108.206080 12849.916866 14929.096403 11724.206120 -6470.035831 20674.969733 20682.935119 20086.305534 20494.797492 17966.391743 17719.242524 20191.158789 23243.875166 12667.672644 19464.545818 13148.793238 7467.874668 14534.641948 20863.116145 19973.331502 18065.372457 19374.746093 19954.673497 17602.401946 14360.926181 15739.309250 16035.276200 20661.967366 10062.954224 15352.100267 12710.319172 21385.346703 22818.856627 23418.593704 21648.524133 17132.566613 17024.490502 16222.238132 18097.937071 16982.758433 20952.719026 9054.870529 8732.881404 23675.412184 21606.830902 24671.335677 26260.725274 19895.117552 20214.577013 22022.040121 17602.616080 19795.988465 17523.330460 21238.478670 17355.164848 15458.974467 12624.228029 21476.941539 22607.750233 21960.334475 21604.888201 16826.034748 20053.153943 20037.953078 17507.092289 15750.135468 8618.320876 13345.324981 12828.693077 15341.106528 21085.983568 20674.172074 19741.557547 19470.649974 21472.440019 18617.301101 8238.752166 16605.322876 12164.730301 14123.217833 16091.925885 17005.179975 13937.896039 20440.315153 20589.339039 21484.552733 19873.068393 20271.479443 18046.818737 16291.236255 13636.373444 14712.220541 17347.987109 16329.066594 13105.806672 15262.567584 19759.078326 21174.946677 24584.556571 14046.568494 18808.101576 16170.309963 18696.994762 20411.025850 14674.072222 16721.832226 10126.747730 5627.483628 -2002.640479 19282.372347 21003.027472 24902.876809 21742.484214 17367.429974 19783.564306 21834.018519 15447.980320 19864.367316 11337.858034 8050.178425 18059.382935 -10861.839548 19130.498322 19643.793726 22025.850739 16906.872216 19429.331916 17358.849612 18529.368699 17036.627237 20924.607731 19602.119558 17152.606982 13282.605786 17128.356928 19543.601144 19205.186055 19000.542170 18092.637861 19379.895777 19195.823175 20762.462052 14400.634899 20861.738429 17919.220108 15662.551057 13359.147803 11500.673299 20029.722342 22099.519561 24895.190506 20758.792328 16859.255841 18590.110602 21797.847517 17327.041992 18160.108106 15107.807101 20462.157535 18885.410357 19394.914843 19342.470566 20460.683542 23940.362528 17261.687287 20400.315058 22801.429540 17836.752505 21268.481793 14216.903498 15761.698809 15487.329199 18152.224757 15760.830475 18410.181383 15593.323796 15612.148153 19564.423331 20060.514126 19211.794700 16947.517696 20784.177336 22505.724987 19852.471135 19062.578504 11693.524832 4868.511562 18547.388381 16588.955122 16976.117862 18086.294460 12853.549921 17657.118413 15454.497233 14623.848739 19879.636593 17766.225537 18753.672075 17635.547631 11153.993022 18728.582592 18418.336983 19068.958796 19548.607942 21217.410910 19926.808092 20538.345755 18495.578084 18932.500947 17739.230297 17516.287506 21203.153922 21034.904100 18436.843371 19127.967210 20672.027609 21048.678926 20911.102802 18381.864330 19338.376886 21456.275710 16160.699015 17408.885705 18461.391226 18511.745443 17098.704353 18278.320628 18629.074953 20449.914974 19506.755512 18606.390616 20960.213909 19839.684854 19627.614854 21053.536742 19267.536404 17536.418644 21635.681278 18182.036502
</DataArray>
<DataArray type="Float64" Name="Velocity" NumberOfComponents="3" format="ascii">