<VTKFile type="PolyData">
<PolyData>
<Piece NumberOfPoints="2177" NumberOfVerts="2177" NumberOfLines="0" NumberOfStrips="0" NumberOfPolys="0">
<PointData>
<DataArray type="Float64" Name="Pressure" format="ascii">
 13175.545964 13003.779870 12615.706772 12010.649106 11258.228978 10405.903015 9430.690443 8316.870692 7063.163174 5709.732048 4343.690654 3061.224661 1942.119436 1030.541890 307.372602 -265.590131 -714.371508 -1056.469845 -1307.919191 -1484.276458 -1600.168499 -1669.075882 -1703.152829 -1712.972192 -1707.286763 -1692.883336 -1674.522740 -1654.993310 -1635.703356 -1617.870887 -1602.565738 -1589.863762 -1578.900714 -1568.299976 -1556.487224 -1541.899645 -1523.130228 -1499.026711 -1468.752752 -1431.815913 -1388.067110 -1337.676971 -1281.095088 -1218.998226 -1152.233334 -1081.760750 -1008.603172 -933.808414 -858.444193 -783.676107 -711.074044 -643.366431 -585.363657 -542.476550 -516.443534 -505.263748 13226.594404 13080.402319 12710.108715 12033.938343 11216.549763 10339.781284 9292.722351 8148.838954 6887.084272 5506.180606 4113.055122 2811.214438 1699.719608 871.652421 237.748824 -289.102588 -720.445930 -1056.616349 -1306.210736 -1482.186805 -1598.264796 -1667.568403 -1702.095671 -1712.360409 -1707.127156 -1693.271779 -1675.703063 -1657.114791 -1637.627207 -1618.785808 -1602.924994 -1589.995601 -1578.939381 -1568.290179 -1556.444581 -1541.831634 -1523.042646 -1498.925319 -1468.643436 -1431.704427 -1387.958755 -1337.576323 -1281.005774 -1218.922705 -1152.172446 -1081.712316 -1008.557355 -933.732550 -858.234155 -783.008530 -708.992856 -637.947940 -574.867554 -531.062391 -506.977463 -497.595173 13299.843680 13294.346682 13313.710935 12108.031365 11140.569815 10542.832689 9071.311981 7981.320365 6784.852551 5371.734385 3882.508838 2461.070286 1183.860082 597.278610 133.142201 -320.973735 -728.745817 -1057.471475 -1304.759148 -1480.193384 -1596.393284 -1666.067352 -1701.037592 -1711.753730 -1707.000569 -1693.791514 -1677.438083 -1661.334682 -1641.970146 -1620.013397 -1603.224526 -1590.068814 -1578.964246 -1568.319622 -1556.493286 -1541.901512 -1523.130802 -1499.026886 -1468.752803 -1431.815919 -1388.067080 -1337.676860 -1281.094720 -1218.997025 -1152.229426 -1081.748028 -1008.561752 -933.673566 -858.005270 -782.245648 -706.452969 -627.557730 -550.630561 -509.097196 -490.674811 -484.739174 -502.399329 -483.059813 -475.333805 -452.589501 -445.567100 -441.731164 -400.903345 -399.214666 -397.673303 -356.552655 -356.092522 -355.552129 -316.573485 -316.474597 -316.265499 -280.318088 -280.325053 -280.223207 -247.470378 -247.507500 -247.441156 -217.807680 -217.851767 -217.798681 -191.124611 -191.168480 -191.121840 -167.215703 -167.257131 -167.214849 -145.873929 -145.912263 -145.873666 -126.893288 -126.928396 -126.893207 -110.071926 -110.103864 -110.071901 -95.214820 -95.243719 -95.214812 -82.135822 -82.161849 -82.135820 -70.659083 -70.682424 -70.659083 -60.619962 -60.640809 -60.619962 -51.865502 -51.884049 -51.865502 -44.254571 -44.271013 -44.254571 -37.657753 -37.672275 -37.657753 -31.957030 -31.969813 -31.957030 -27.045338 -27.056550 -27.045338 -22.826011 -22.835813 -22.826011 -19.212170 -19.220710 -19.212170 -16.126067 -16.133484 -16.126067 -13.498416 -13.504836 -13.498416 -11.267719 -11.273258 -11.267719 -9.379604 -9.384367 -9.379604 -7.786186 -7.790269 -7.786186 -6.445450 -6.448938 -6.445450 -5.320670 -5.323641 -5.320670 -4.379862 -4.382384 -4.379862 -3.595273 -3.597407 -3.595273 -2.942906 -2.944706 -2.942906 -2.402090 -2.403603 -2.402090 -1.955080 -1.956348 -1.955080 -1.586697 -1.587756 -1.586697 -1.284004 -1.284885 -1.284004 -1.036007 -1.036738 -1.036007 -0.833403 -0.834007 -0.833403 -0.668338 -0.668836 -0.668338 -0.534208 -0.534617 -0.534208 -0.425473 -0.425807 -0.425473 -0.337498 -0.337770 -0.337498 -0.266419 -0.266639 -0.266419 -0.209014 -0.209191 -0.209014 -0.162608 -0.162748 -0.162608 -0.124973 -0.125085 -0.124973 -0.094263 -0.094350 -0.094263 -0.068941 -0.069006 -0.068941 -0.047726 -0.047775 -0.047726 -0.029556 -0.029591 -0.029556 -0.013550 -0.013573 -0.013550 0.001016 0.001003 0.001016 0.014720 0.014714 0.014720 0.027997 0.027996 0.027997 0.041130 0.041130 0.041130 0.054225 0.054223 0.054225 0.067171 0.067164 0.067171 0.079585 0.079566 0.079585 0.090724 0.090686 0.090724 0.099380 0.099313 0.099380 0.103742 0.103634 0.103742 0.101214 0.101049 0.101214 0.088201 0.087958 0.088201 0.059835 0.059489 0.059835 0.009653 0.009171 0.009653 -0.070791 -0.071447 -0.070791 -0.192382 -0.193260 -0.192382 -0.368974 -0.370133 -0.368974 -0.618007 -0.619515 -0.618007 -0.961193 -0.963132 -0.961193 -1.425302 -1.427769 -1.425302 -2.043028 -2.046132 -2.043028 -2.853925 -2.857796 -2.853925 -3.905433 -3.910216 -3.905433 -5.253949 -5.259807 -5.253949 -6.965944 -6.973059 -6.965944 -9.119102 -9.127676 -9.119102 -11.803442 -11.813693 -11.803442 -15.122392 -15.134555 -15.122392 -19.193776 -19.208099 -19.193776 -24.150647 -24.167392 -24.150647 -30.141938 -30.161369 -30.141938 -37.332831 -37.355218 -37.332831 -45.904815 -45.930420 -45.904813 -56.055328 -56.084401 -56.055324 -67.996945 -68.029713 -67.996931 -81.956009 -81.992660 -81.955964 -98.170674 -98.211331 -98.170529 -116.888297 -116.932951 -116.887826 -138.362196 -138.410519 -138.360665 -162.847933 -162.898691 -162.842956 -190.599709 -190.648890 -190.583537 -221.868914 -221.903622 -221.816364 -256.911448 -256.889828 -256.740707 -296.026433 -295.809622 -295.471670 -339.697155 -338.811322 -337.896196 -389.297384 -385.879466 -383.421955 -446.246968 -433.480531 -427.722768 -477.266174 -456.315163 -447.006807 13715.726195 14078.939787 14786.208050 14943.650350 14952.018502 14992.621001 14191.149170 14268.833957 13416.092934 12441.385166 14262.528156 13473.947879 11085.833653 9543.702165 7965.593788 6524.382646 5000.684699 4159.897425 3056.402767 2028.263711 1148.689177 435.810113 -127.097904 -567.118023 -910.337643 -1178.166503 -1387.054046 -1549.289106 -1673.938863 -1767.652631 -1835.300429 -1880.473941 -1905.876682 -1913.621395 -1905.448347 -1882.877671 -1847.309189 -1800.082684 -1742.510010 -1675.888292 -1601.501126 -1520.612741 -1434.458474 -1344.233724 -1251.082666 -1156.086986 -1060.253183 -964.491961 -869.567741 -775.939730 -683.305377 -587.189836 -502.797468 -466.876524 -451.356505 -445.561486 13499.854600 13764.406620 13780.330801 13133.271906 13619.724970 14235.979111 14152.651662 13519.424890 12726.421680 12325.369225 12365.142434 11443.246563 10174.118741 9106.439968 7869.488755 6596.538904 5341.883967 4173.392667 3054.097199 2024.686342 1148.046395 436.771212 -125.694760 -565.783731 -909.216066 -1177.259766 -1386.324708 -1548.696156 -1673.447682 -1767.236545 -1834.939955 -1880.155522 -1905.591374 -1913.363653 -1905.214985 -1882.667022 -1847.120480 -1799.915592 -1742.364370 -1675.763916 -1601.397701 -1520.529801 -1434.395434 -1344.190071 -1251.058560 -1156.085196 -1060.285335 -964.598966 -869.887047 -776.937245 -686.521962 -600.016656 -525.629045 -482.340673 -461.196629 -453.121183 13283.156335 13413.683135 13761.338377 13989.825016 13970.534600 13608.212830 13145.462987 12795.301298 12449.299072 12146.714795 11745.111769 10986.377861 10024.280546 9000.685136 7874.803680 6659.848033 5413.983740 4197.235120 3047.859746 2016.287012 1142.183025 433.078920 -128.097191 -567.452458 -910.442641 -1178.197920 -1387.063104 -1549.291644 -1673.939558 -1767.652818 -1835.300479 -1880.473954 -1905.876686 -1913.621396 -1905.448347 -1882.877671 -1847.309190 -1800.082685 -1742.510014 -1675.888306 -1601.501171 -1520.612888 -1434.458950 -1344.235276 -1251.087722 -1156.103465 -1060.306880 -964.666937 -870.137742 -777.799795 -689.301896 -608.107014 -540.808607 -494.890456 -469.313425 -458.915589 13329.317184 13657.171175 14292.962161 11993.269347 10856.062251 11038.430572 9249.900620 8411.280973 7075.515843 5599.932290 4036.922485 2519.390998 765.349272 358.300209 96.690748 -331.381275 -732.121402 -1058.707316 -1305.224515 -1480.355642 -1596.436064 -1666.069093 -1701.034493 -1711.768608 -1707.064492 -1693.981439 -1678.057586 -1663.528721 13350.349452 14341.761520 15830.284560 13399.407842 12134.415314 13282.442452 13579.779984 13528.073572 12515.195853 13057.007641 12031.196846 12010.453506 13216.071819 14101.549692 12190.607294 8274.488749 13675.086853 12298.128991 11467.444176 11249.122241 11430.231276 10711.010650 11156.773125 13116.960905 14406.732382 10143.626590 1995.939886 4577.295631 13368.335083 13997.162269 14275.884453 13359.658165 9549.658149 13438.373636 11933.603654 11071.165925 11906.130234 5336.740371 13209.134915 13290.611806 13034.606542 10319.723612 11290.452488 15197.957833 12418.248179 4797.419803 11765.377862 9556.715140 13223.666951 11876.250442 11475.609957 11309.925769 12117.476085 6987.506320 10707.445871 9550.358977 13508.603469 13827.255386 13755.509929 12444.020915 9290.044867 11255.255754 10938.712205 5684.630908 13584.384590 12929.818880 12252.266576 10645.332784 11850.813898 8918.966439 12078.250082 5735.351880 9416.566095 3634.298728 9817.837852 11815.268770 9258.049367 11951.645933 13264.825648 9999.173380 7405.366040 11895.830405 9402.995648 4767.074325 13685.786642 14723.736951 16117.080446 12178.950010 11076.671384 12620.470693 12613.674022 13964.111818 14199.342979 11965.908692 13118.828371 4148.671857 8075.381737 6040.300110 11098.830661 12135.288819 9731.364617 11451.834257 9180.122875 11753.459213 7319.221318 10318.941152 5912.458892 6015.721946 3994.012886 3559.428316 8599.641773 2153.682026 13774.944028 13958.801108 14056.062514 13451.544881 10788.011914 11697.274251 15716.920782 12481.179407 12843.047589 9995.494927 4222.734293 12190.785712 9694.384680 8761.007345 10114.872721 8406.384032 4795.039131 2579.023026 5643.277260 4329.525921 7385.603398 3835.875107 10949.061632 8878.207834 4574.088809 9362.082943 4433.830461 3599.147209 13808.506518 12304.206343 10449.367529 12207.138686 13098.143554 7385.667836 13597.171169 10929.066110 14027.311107 10822.146708 12381.044446 12723.851988 8780.579999 7343.018108 11103.119138 8101.009543 9383.874219 5464.227284 10625.877642 8364.481825 11514.220103 4444.603435 4310.747582 6382.747596 3803.781296 3436.406660 4079.973928 2588.046333 13807.218259 13173.149278 12135.373192 9436.874255 14225.227572 10831.834023 11787.756621 7316.681911 12548.846291 4383.892432 5785.723479 8039.463116 10108.654435 7675.921601 11840.408531 10565.176322 3841.172813 10512.953684 10108.894871 6700.362407 7843.550252 11335.444876 3223.710307 9337.243218 8523.964238 8160.546608 3898.754370 3009.580837 13879.736630 14879.831010 16179.419020 13941.425242 10821.603161 13736.798881 12040.616302 12170.217785 14443.427040 11362.914012 14124.558596 12513.582289 11595.628762 6847.835571 5982.385580 13735.654010 10519.489761 12338.402806 2126.000535 6614.729088 6084.612371 5636.336548 5307.598993 4057.875132 7963.372542 2948.670547 4623.756339 3153.272017 14185.506026 15506.020568 16835.566731 15623.950690 14592.010118 13683.403679 11530.332461 10365.405168 10415.229654 9216.853093 9600.661824 3312.158441 9528.309706 9650.462070 6699.833950 6795.778689 6349.098277 9089.223178 6560.860961 11578.126390 5472.729578 3714.945266 3950.554365 8716.208951 4338.277320 3280.264645 2820.135399 4578.741497 14567.541424 15922.725210 16983.205116 15107.669018 14350.491613 13473.102987 8937.016924 11954.333718 5611.043710 13544.009369 6392.011651 9725.908342 7682.723681 3207.945792 9221.716208 7530.138705 5673.693938 8132.184445 9070.372848 6237.960847 6844.357649 3173.227252 7885.252128 7707.561798 4614.184735 7099.682399 7812.987576 4448.734253 14472.886568 14897.315854 14913.570453 14737.536000 12978.842632 13419.130339 10669.981041 12803.559802 9290.488233 10142.598579 4500.340065 8448.718491 12580.035903 12644.850551 9450.871985 9592.760485 11497.685908 4278.487903 4872.585653 5090.330455 7581.807905 10790.414506 4662.585491 5075.547252 5061.124953 5452.850534 1436.057876 2618.613313 14192.339066 13523.748168 13217.021319 14404.936219 14980.112025 10689.842477 8209.289876 11950.968880 6791.253758 9197.833702 7380.821432 11801.902288 13637.840485 2449.581049 7420.098641 4556.750782 10221.172043 8672.729281 5054.512298 12235.158674 12123.459978 6103.266607 11002.424397 4729.762020 6933.876731 4047.064314 5120.160336 7390.827593 14275.800832 13623.589161 12779.776500 15037.952056 13047.505913 12216.454394 11937.560554 11544.918937 8493.025902 14738.314064 9706.398162 4736.127419 3977.579673 4513.665979 1159.853744 7307.328576 8029.920296 4296.497641 4645.427984 3721.602850 2984.060175 3428.990874 4983.315510 7503.957185 2798.282250 4992.985800 7948.802155 4507.291914 14402.872420 14563.907907 13850.645801 14994.900320 13826.414985 14055.265334 14115.887978 13292.578100 13151.739960 9262.137559 10475.070135 5857.186785 4808.117385 3150.117923 6542.982729 3300.746512 4457.211385 2675.694040 8133.968197 4873.862685 5519.359547 4041.643922 3558.064138 3869.248823 6695.697369 3835.522486 2643.306297 1319.335871 14282.673419 15036.034094 15659.720166 13393.416288 14772.707506 13082.361786 13963.610366 12497.412233 10025.844690 8310.658418 7176.470185 4181.045758 5478.418644 14260.500726 14576.841572 14371.657447 15580.041035 13331.214006 16381.434784 13918.279064 11549.531861 14121.223630 7385.626057 3418.869103 3668.038405 2240.054608 14691.767950 14637.705392 13878.047918 16076.577492 14161.500569 11949.185274 4240.978544 14222.552847 11363.581435 3194.990275 4178.735226 8682.610930 8661.312139 15340.545535 15671.453736 14721.937540 15963.407031 15745.889573 13720.180677 11376.637803 13536.104497 4224.594278 6769.581040 2609.736426 2581.354211 2976.844851 15728.774042 15607.880058 14549.788136 15833.571735 15992.091407 15127.948117 12115.131814 4718.198914 5825.520859 6464.171981 11095.037663 9739.098456 2234.385402 15594.967693 14495.611596 12956.215658 16404.912705 13080.449586 15689.074407 10866.418496 15396.108909 2539.507174 4153.253094 8777.384026 2442.632714 4991.772168 15333.090441 14091.958655 13234.029767 16503.113583 13941.462208 13723.166452 7474.229437 9184.667610 6074.639896 10428.296468 9449.920697 2700.522037 3921.808260 15457.060647 14420.297735 14477.774229 15996.743834 13135.507338 4381.848441 4098.132335 5265.989527 3328.598261 11949.837866 6132.940145 4838.394594 1486.722076 15686.690241 14872.821317 14391.423295 14841.938986 14385.544795 8927.583209 10257.531654 11170.851981 10156.059161 8870.145649 4048.905065 3982.305617 2611.741740 15527.962551 15010.682564 15498.315425 17764.322638 15268.409857 14710.382930 11916.231425 7028.125032 8373.817765 7613.066198 4524.682473 2940.657699 12525.795760 15169.137787 14019.449150 13576.535613 15576.109548 13856.247514 12570.475332 11114.804672 7236.626256 9791.135274 11591.591211 5426.155452 6541.133850 13896.850170 15151.061561 14108.851371 13381.906992 16030.735757 14499.201007 15419.017233 14050.322521 12070.948695 6750.072657 7307.324283 10913.711580 4175.643429 6063.365208 15336.212889 15104.335094 14931.618219 16922.749221 15218.670852 17147.681969 12853.790406 13981.503340 4539.371995 9350.224399 11897.766734 3922.519160 5807.132397 15509.840355 15304.093968 15315.413819 12843.610542 14151.442155 12797.299895 15491.374903 12053.833151 5529.571660 12680.466590 5672.017692 4359.564157 3005.393118 15595.238014 15122.004776 14638.364009 18161.224509 13913.318648 14569.816674 15360.372606 16737.928390 11532.896730 14872.016134 3148.947408 6356.845511 8237.758543 15648.487654 14633.951167 13768.424043 13991.466375 14667.565439 16648.464855 17482.606627 15226.910654 10721.016173 14665.430331 6992.327747 5694.581329 11067.575920 15733.253473 14658.901738 14029.573744 11347.959142 16074.463523 16390.825405 13783.661715 13855.310697 5644.665394 8796.831334 2846.125597 4552.201157 4029.588805 15843.941877 15227.236920 15199.423517 17279.919370 16079.677436 14761.205277 12050.015218 12059.954765 10383.624087 14456.775604 4816.834776 3719.072024 11142.912429 16180.432280 16602.234817 17513.871542 16687.127731 16405.262856 14595.413184 10735.861480 11578.521830 10877.805837 7646.812872 9289.288968 13038.239111 1610.590065 16646.403313 17933.960124 18026.285897 17194.192348 16925.980511 13777.398890 14862.124505 7131.813148 8631.872807 11886.109510 13854.312257 4135.500101 -17465.184029 16778.615101 17868.527520 17547.214667 14042.563743 14895.791379 16318.791629 12514.732792 8463.071534 11995.290289 6949.060494 5044.433750 4319.839152 1429.560998 16595.037900 15755.113959 14241.324685 17112.282032 14734.521707 16369.321133 8230.100784 10809.189418 10340.995307 6089.064873 8180.448337 5452.178984 10654.214255 16395.821063 15311.027704 14419.778611 16604.328018 16059.249582 14280.141107 11308.050976 9789.322447 9243.668653 5365.289058 6353.315051 4620.416496 8517.939842 16203.415791 15678.772010 15803.870521 15568.664939 15984.528363 13670.463512 12978.961143 12001.729254 8093.744329 6655.769712 4554.016405 7020.888954 5573.059919 16388.507680 15768.141901 16217.435894 17215.845906 18586.053662 15938.649787 10091.399343 16300.337979 7392.223256 9623.711948 9957.890597 6984.762786 -1022.193580 16982.163369 17782.136337 18703.144657 18570.750518 17656.791406 7638.408036 11189.839513 11992.912697 12904.583496 11322.235583 9390.228479 8683.440340 5392.222748 17199.327556 18954.886430 20028.647619 17322.656247 18226.335912 14268.813071 4199.864569 18429.073211 8795.982067 11381.423018 5686.989084 4885.579263 4349.154576 16848.071862 17448.067588 18385.904366 17452.370245 19097.773071 16491.722218 4837.217718 14128.728467 5305.253876 7316.603476 11729.567180 7013.059600 8405.349299 16679.008970 16446.946532 16594.996158 17583.680286 14723.643519 15080.500757 15610.192241 14733.600772 9111.882645 8311.586359 5125.949826 4574.151097 6669.382833 16922.196950 16555.930998 15990.040719 21145.614219 20806.331491 16914.770341 17902.032278 16330.668998 6288.694327 8200.760362 3671.196184 6479.948028 -5474.640852 17226.360751 16876.590689 16819.001533 16118.999503 18476.922074 7583.753663 7593.745350 18014.340798 18894.187211 11704.671987 8238.255911 7534.144472 8647.476864 17490.189102 18264.407394 18600.245795 17220.694915 15111.514102 8691.010347 12519.383361 14776.507928 8064.841255 5522.918908 6754.202399 9370.691055 9527.222218 17736.934066 18930.782587 20337.333718 17735.335258 17848.683733 16086.884852 11896.091496 13850.744252 11857.066889 7962.696144 5988.297872 11360.095451 6632.215029 17908.531490 18262.015883 18643.285331 17563.008395 17710.242935 14954.378277 13348.142952 11239.813947 9150.666184 10650.651274 8432.459071 7738.618859 5526.172923 17923.249327 17658.128711 17685.590971 17583.294055 18746.070070 13524.522837 16922.031126 13063.855866 9366.378596 13734.200235 14594.830221 8737.326285 12107.759435 17881.158250 16870.450419 15299.105124 19367.578910 20116.922153 18063.482329 17148.503498 13590.997043 6354.704030 7120.850714 8595.407514 8929.466733 10780.857015 18039.589715 17830.532089 17129.880880 19249.866922 20596.149172 14559.126651 15086.799931 16953.519932 9592.265343 8415.007731 7223.427073 11126.106074 8078.307826 18039.609416 18204.409307 17699.525487 18268.895024 17169.302755 15794.882034 20265.413870 9960.991065 9826.053426 7971.308160 8024.172870 11642.257922 20023.906218 17828.668835 17153.996599 16195.068724 18909.673681 18874.014352 16341.511981 9003.878939 7380.971569 8992.401148 9585.701529 9775.674417 2681.743486 7785.923760 17851.731116 17299.903746 17174.915248 18273.628127 15568.840922 18388.756013 12621.822737 10312.470988 12541.245017 9155.736179 7827.879440 3562.689611 10361.434302 18030.435266 18176.304848 18410.158785 19732.763612 18447.832378 16864.198160 17499.347991 14109.097654 9780.359408 10508.728826 10379.060476 8641.787471 10558.246541 18103.531361 18499.387978 19019.063720 19154.237314 19250.181501 17635.581200 11426.274405 11644.392541 18062.444845 10951.562410 10775.965927 11460.758462 10887.278856 18120.486501 17369.968754 16078.993221 17208.876224 19043.074370 18286.727520 17053.762982 15512.849348 14662.138921 6641.482197 12372.502384 11981.845291 7515.039588 18240.863003 17656.254020 17739.960040 17649.920517 18740.384618 15202.929625 12223.779609 8846.058304 9547.063983 11098.417574 9729.512027 3597.960192 4734.952010 18377.917281 17287.755483 16675.231904 19384.426769 19862.713966 16706.642527 11814.559137 17795.638730 13351.736357 11164.595164 10448.129025 21946.102425 4747.694925 18414.006011 18811.927091 19879.252745 18371.713080 18349.770948 17388.374232 14036.721542 14129.559589 14572.957308 13982.935387 9024.738463 9680.427531 16207.560582 18129.537124 16888.684519 15734.905263 21055.259817 16936.899753 13295.735540 10748.554334 14683.169321 14131.996249 11233.750356 8488.991756 13188.617311 12894.315961 18219.957419 16151.430128 14020.454851 19696.815628 17637.862725 13010.147946 15137.080084 13618.845257 12707.214991 12222.534429 7655.413026 10704.250430 10147.433675 18636.092961 18096.928289 17215.941566 19502.495728 20081.709984 18302.387844 12247.494080 12639.641524 12180.819537 14533.729777 12534.406697 11021.220112 12739.425219 18638.449383 18801.044144 19712.778419 20215.374386 19169.908873 17894.012367 19112.973825 15718.502352 15108.218715 14588.539398 8163.609025 13538.179737 12560.026236 18411.363277 17439.412682 17485.829686 19692.272378 17202.389146 18843.182926 15729.815912 16203.208787 12386.445925 8405.800094 14627.063662 10379.839415 11695.620889 18380.664519 16759.977944 16731.056694 18976.647546 22777.402338 17894.711629 14634.603786 15731.017678 15845.450793 13379.225764 13961.706763 12898.980648 7924.646439 18492.006308 16373.634971 15424.515169 18811.178696 20102.261335 18534.584294 14881.008794 15574.299592 16251.137287 12637.250555 11623.403463 11305.472557 2947.247024 18801.100159 17767.243081 17162.474241 16239.542237 23652.129343 19262.553885 11428.813578 18356.002161 15094.958487 11626.223795 13970.945290 8165.678945 9543.591905 19263.370537 19862.499998 20294.476517 15426.979909 15758.956470 19823.830614 12662.502525 17825.930875 15368.782925 12484.473885 13445.271409 7988.155008 8171.034207 19454.618094 21365.483712 22566.649997 16677.284529 18848.975382 19807.522262 16800.271852 16933.695946 11407.579051 13833.150867 12350.121627 16000.577019 3924.033777 19115.889336 20353.889019 18977.750991 17737.113259 16749.460462 17456.065310 14697.096695 17334.960179 13487.780242 11773.391504 15069.490681 8941.451041 7870.373273 18776.274301 18849.080072 18789.953387 20978.919171 17316.625368 14654.725887 18287.158887 15790.993954 13702.461535 12974.619616 10494.497525 12349.140305 8392.970887 18840.818355 18430.255583 18879.935980 19788.757754 16195.358138 17466.754105 12755.518871 13107.120000 6342.643022 10154.641432 10875.149436 13110.920666 11068.685275 19225.998302 19052.816371 18666.774547 17708.075386 21186.835035 17630.518678 16836.734924 12781.283411 15282.231551 14002.685870 11578.870985 8202.946887 8312.948541 19316.350753 20051.485797 20466.880602 19501.770331 17793.656900 16002.261446 15955.686907 15338.768524 16204.397650 13213.078515 6774.856383 10460.906124 3757.738185 18799.058520 18609.585936 17533.321494 18346.561872 19952.197085 19080.324137 17201.863253 16051.411084 14347.035674 14220.598516 10523.947891 9664.643896 21387.208401 18348.127539 18958.565006 19306.572976 19179.467473 19513.146517 21276.538988 16435.638411 16027.714441 16365.675667 10284.840305 10370.514199 29993.313669 11258.643959 18207.447965 18558.536109 19966.477246 20024.582066 17539.113199 13889.232894 15866.698625 15432.924684 10067.766739 18120.425394 11436.176131 10748.875969 8734.449048 18256.355927 18451.595976 18894.860278 19357.901322 17788.880503 17849.665213 19724.592565 18891.850219 14549.440127 16972.700183 13389.556045 10821.573509 12275.319861 18044.867481 18730.689452 18301.422971 20242.549258 17584.793629 18991.524417 13951.226643 16192.504170 17821.714150 16927.810680 13000.952690 9124.058043 14082.343647 17574.123254 17158.425539 16705.813329 19719.566843 14653.420591 17605.350932 13747.232393 16591.463715 9179.019240 12285.195542 11620.503271 10528.213248 9005.494979 17270.419708 17890.882129 19090.871794 18554.169171 18523.279637 16978.650996 18739.540343 16255.774117 11810.496145 10383.345024 10846.168474 8632.067430 -12385.620144 17083.600480 18191.351426 20289.907026 18392.750322 17393.477509 16375.543544 18072.644679 17319.415003 13561.987678 17086.942019 9838.328954 8368.058069 10613.646135 17092.300181 18375.952029 19864.332292 18710.705688 18782.499692 18887.698589 13025.523069 13362.214575 13110.975634 15380.085202 10289.216744 14220.961020 7886.023921 17360.914966 18177.454524 18852.906120 18753.641440 16777.740136 14205.572692 15714.822729 17032.404472 19814.598836 16477.798501 8481.111774 9243.774302 5766.234383 17450.134339 17319.017254 17615.047253 19702.976174 17428.402789 15560.076367 18145.960198 16292.200105 16137.662728 19285.601271 14249.859668 14905.117330 9571.173029 17067.209347 15549.294111 14204.937236 17669.564951 15104.754528 17533.833888 15805.396066 13667.953764 12739.047600 9498.806491 12182.825009 11632.101757 5765.011730 16635.809492 16019.129282 16339.624118 18564.420129 18018.875690 16864.370304 8596.734336 15639.296127 10189.502803 9728.541632 11811.091488 13101.706325 7034.331426 16214.887288 17167.060926 19300.609088 18652.469110 16635.091422 16145.534572 15537.425630 11186.293065 10723.647001 12022.188743 13239.814944 10885.687838 12582.072291 15698.583879 16492.920397 17429.670903 15610.290392 17270.742294 18264.444637 14035.268921 15645.948251 11388.077433 13045.003748 8507.709972 8746.260212 11794.898115 15343.475357 15316.890050 15497.005526 16977.973230 14070.364596 14996.978743 15195.225368 10012.713316 14770.703936 9808.559088 10292.973635 4879.832526 11615.509475 15367.751903 15774.618088 16632.901315 16449.917562 14678.040579 17691.956908 11408.967143 14985.546078 15048.367328 14886.127717 14146.260520 7907.080597 12706.602612 15462.979405 15837.672885 16678.294628 13088.536387 16860.216288 12727.393653 15986.649780 9949.451353 13906.774573 13780.207657 13182.801141 8712.590559 7763.523170 15358.515369 16057.752440 17161.708795 19430.786865 18932.864142 18349.175129 15814.515080 10799.425653 16235.965025 5919.638691 14653.529989 13679.996168 5892.326127 15080.430031 16384.674976 18249.482330 18994.034241 16987.341624 14536.340572 15874.240443 13426.169357 18221.144040 17005.512005 16154.657828 14065.244702 10639.164188 14817.938284 15870.408925 17517.625928 14460.663713 15895.800267 18714.743854 18451.727636 18347.169026 14800.196792 14343.283428 14707.785719 10798.998772 8208.529468 14600.377827 14102.560497 13909.693311 17683.397304 15980.090927 14450.018397 16475.044492 16652.828637 17971.783292 16776.356658 15319.455759 14394.299905 9172.320152 14287.930857 12981.733079 11144.543418 17049.509957 17150.938484 18120.303795 16468.591756 18693.747255 17578.629232 14042.042041 14781.904328 15249.973370 16226.017185 13945.886392 14114.797036 15133.816585 17840.058053 17052.036599 17740.235720 16936.335547 15902.828061 16275.739484 14777.295139 17177.092253 20364.900538 17733.444815 13715.726195 14078.939787 14786.208050 18503.923607 20131.650925 18009.715274 18456.721876 17849.504896 19753.544607 18542.641546 17858.697564 18582.172361 15173.323539
</DataArray>
<DataArray type="Float64" Name="Velocity" NumberOfComponents="3" format="ascii">