<VTKFile type="PolyData">
<PolyData>
<Piece NumberOfPoints="2177" NumberOfVerts="2177" NumberOfLines="0" NumberOfStrips="0" NumberOfPolys="0">
<PointData>
<DataArray type="Float64" Name="Pressure" format="ascii">
 15650.165162 15530.037745 15254.817727 14793.213661 14134.968805 13276.398874 12206.526452 10927.242375 9458.620568 7818.049940 6019.542546 4085.294735 2141.577607 465.358698 -711.843516 -1405.116924 -1764.555877 -1928.680428 -1984.522500 -1980.515423 -1943.058202 -1887.181491 -1822.425182 -1755.783095 -1692.904521 -1638.313288 -1595.148073 -1564.819841 -1547.222126 -1541.572547 -1546.254453 -1558.355137 -1574.124130 -1589.639981 -1601.274104 -1605.978303 -1601.442250 -1586.151222 -1559.367777 -1521.058734 -1471.786667 -1412.582413 -1344.812097 -1270.049175 -1189.959298 -1106.203557 -1020.364553 -933.901412 -848.150011 -764.418858 -684.329320 -610.624774 -548.145900 -502.278068 -474.539461 -462.623945 15567.927445 15403.886631 15069.048873 14572.129216 13931.688090 13099.951156 12027.352899 10757.324787 9325.204328 7717.909302 5947.741493 3953.623791 1817.781178 2.510750 -1087.697614 -1624.042944 -1875.624897 -1981.330500 -2008.700405 -1991.438761 -1947.956875 -1889.424029 -1823.583234 -1756.598653 -1693.752110 -1639.455072 -1596.868778 -1567.225413 -1549.129859 -1542.465387 -1546.617898 -1558.487964 -1574.140018 -1589.580537 -1601.160063 -1605.825227 -1601.264341 -1585.961678 -1559.178354 -1520.879288 -1471.624880 -1412.443701 -1344.699662 -1269.964086 -1189.900329 -1106.166028 -1020.335770 -933.845107 -847.955930 -763.749078 -682.187868 -605.020155 -537.320379 -490.655063 -465.049221 -455.025334 15403.927785 15204.045555 14903.193774 14154.106811 13738.007344 12821.326127 11495.614526 10338.652042 9062.616065 7433.567181 5818.719829 3819.255515 1268.378657 -945.007841 -1636.835533 -1907.902504 -2008.814625 -2042.718887 -2036.638175 -2004.044554 -1953.622118 -1892.019538 -1824.906519 -1757.498726 -1694.668046 -1640.740937 -1599.180789 -1571.724453 -1552.814390 -1543.297803 -1546.757075 -1558.501549 -1574.166325 -1589.652000 -1601.277476 -1605.979230 -1601.442498 -1586.151285 -1559.367789 -1521.058726 -1471.786632 -1412.582297 -1344.811719 -1270.047942 -1189.955275 -1106.190437 -1020.321759 -933.761834 -847.694895 -762.933087 -679.522494 -594.140792 -512.151850 -468.243371 -448.734586 -442.307000 -461.798772 -441.439399 -433.173354 -411.550328 -404.193332 -400.093960 -360.455309 -358.684432 -357.052275 -317.406540 -316.926358 -316.354085 -279.178167 -279.075987 -278.854721 -244.971289 -244.978795 -244.871812 -214.358812 -214.396744 -214.328227 -187.031478 -187.075773 -187.022075 -162.715770 -162.759149 -162.712880 -141.153356 -141.193699 -141.152467 -122.097190 -122.133990 -122.096917 -105.311974 -105.345230 -105.311891 -90.575357 -90.605236 -90.575331 -77.678921 -77.705644 -77.678913 -66.428757 -66.452561 -66.428754 -56.645654 -56.666777 -56.645653 -48.164977 -48.183653 -48.164977 -40.836313 -40.852765 -40.836313 -34.522936 -34.537379 -34.522936 -29.101162 -29.113796 -29.101162 -24.459614 -24.470627 -24.459614 -20.498435 -20.508001 -20.498435 -17.128483 -17.136765 -17.128483 -14.270512 -14.277657 -14.270512 -11.854362 -11.860504 -11.854362 -9.818167 -9.823430 -9.818167 -8.107598 -8.112090 -8.107598 -6.675127 -6.678949 -6.675127 -5.479346 -5.482586 -5.479346 -4.484315 -4.487053 -4.484315 -3.658966 -3.661272 -3.658966 -2.976543 -2.978478 -2.976543 -2.414094 -2.415712 -2.414094 -1.952005 -1.953354 -1.952005 -1.573581 -1.574701 -1.573581 -1.264661 -1.265588 -1.264661 -1.013282 -1.014047 -1.013282 -0.809375 -0.810004 -0.809375 -0.644496 -0.645010 -0.644496 -0.511588 -0.512008 -0.511588 -0.404777 -0.405119 -0.404777 -0.319189 -0.319465 -0.319189 -0.250790 -0.251013 -0.250790 -0.196256 -0.196435 -0.196256 -0.152850 -0.152993 -0.152850 -0.118325 -0.118438 -0.118325 -0.090836 -0.090924 -0.090836 -0.068867 -0.068936 -0.068867 -0.051170 -0.051222 -0.051170 -0.036710 -0.036748 -0.036710 -0.024621 -0.024648 -0.024621 -0.014170 -0.014186 -0.014170 -0.004725 -0.004732 -0.004725 0.004271 0.004272 0.004271 0.013316 0.013324 0.013316 0.022861 0.022876 0.022861 0.033318 0.033339 0.033318 0.045057 0.045083 0.045057 0.058388 0.058418 0.058388 0.073544 0.073576 0.073544 0.090635 0.090666 0.090635 0.109590 0.109617 0.109590 0.130076 0.130092 0.130076 0.151381 0.151377 0.151381 0.172270 0.172235 0.172270 0.190789 0.190709 0.190789 0.204027 0.203881 0.204027 0.207806 0.207567 0.207806 0.196310 0.195944 0.196310 0.161628 0.161094 0.161628 0.093212 0.092456 0.093212 -0.022769 -0.023812 -0.022769 -0.204184 -0.205592 -0.204184 -0.473801 -0.475670 -0.473801 -0.860276 -0.862718 -0.860276 -1.399254 -1.402404 -1.399254 -2.134589 -2.138600 -2.134589 -3.119664 -3.124713 -3.119664 -4.418800 -4.425091 -4.418800 -6.108738 -6.116495 -6.108738 -8.280141 -8.289616 -8.280141 -11.039095 -11.050563 -11.039095 -14.508551 -14.522308 -14.508551 -18.829641 -18.846003 -18.829641 -24.162803 -24.182100 -24.162802 -30.688633 -30.711205 -30.688632 -38.608381 -38.634566 -38.608377 -48.143979 -48.174107 -48.143965 -59.537529 -59.571904 -59.537483 -73.050130 -73.089003 -73.049980 -88.959992 -89.003487 -88.959504 -107.559774 -107.607694 -107.558186 -129.153298 -129.204514 -129.148135 -154.052193 -154.102690 -154.035403 -182.574539 -182.611067 -182.519945 -215.052383 -215.031565 -214.874887 -251.871591 -251.649173 -251.294509 -293.618052 -292.701597 -291.743475 -341.802212 -338.263661 -335.682700 -398.139293 -384.904257 -378.838022 -429.329304 -407.487269 -397.726211 11729.024724 11563.611576 11094.248003 11964.458716 10873.132855 12342.892055 13060.749115 12451.341456 10453.551159 10526.763257 9463.256660 10699.273239 8752.788872 9289.099295 6834.073164 5760.982229 3200.799736 1688.834482 718.021649 65.405258 -396.779548 -742.874175 -1015.654532 -1239.213664 -1426.814680 -1585.611005 -1719.430349 -1830.374960 -1919.713933 -1988.365300 -2037.148044 -2066.908225 -2078.577144 -2073.192870 -2051.901865 -2015.949646 -1966.665311 -1905.442591 -1833.719022 -1752.954262 -1664.608355 -1570.120619 -1470.889762 -1368.255736 -1263.483641 -1157.749407 -1052.125440 -947.559335 -844.822735 -744.348680 -645.761425 -544.328745 -455.950639 -418.505085 -402.303340 -396.179364 11570.056582 11469.357231 11422.673693 12027.458347 11575.840792 11749.808537 12342.584445 11782.618573 10608.859230 10208.282622 9890.526556 9643.622402 8721.691974 7639.028410 6159.259542 4543.403688 2929.251132 1620.987769 702.833733 63.082660 -396.353428 -742.102982 -1014.993908 -1238.685594 -1426.373883 -1585.219951 -1719.067052 -1830.028584 -1919.380196 -1988.043446 -2036.839081 -2066.613948 -2078.299603 -2072.934067 -2051.663592 -2015.733396 -1966.472219 -1905.273415 -1833.574129 -1752.833634 -1664.511615 -1570.047072 -1470.838487 -1368.225818 -1263.474819 -1157.764102 -1052.175234 -947.686128 -845.168412 -745.395519 -649.105947 -557.649215 -479.493420 -434.191190 -412.074207 -403.582156 11433.088204 11343.915119 11208.848432 11223.053344 11122.525805 11287.005312 11513.165858 11176.980054 10588.555228 10119.437226 9687.914391 9105.264333 8201.954939 7024.275114 5618.931366 4130.646202 2717.025473 1549.912923 680.117049 55.481205 -399.289268 -743.494025 -1015.805589 -1239.250267 -1426.823529 -1585.613139 -1719.430860 -1830.375082 -1919.713961 -1988.365307 -2037.148045 -2066.908225 -2078.577144 -2073.192870 -2051.901865 -2015.949646 -1966.665311 -1905.442593 -1833.719027 -1752.954276 -1664.608401 -1570.120769 -1470.890252 -1368.257335 -1263.488854 -1157.766409 -1052.180886 -947.740157 -845.412229 -746.273801 -651.971454 -566.018048 -495.149960 -446.968204 -420.172105 -409.263657 15300.460240 15260.445594 15407.024542 13977.792046 13727.303706 13300.416805 11452.855468 9864.795555 8947.759376 7462.015637 5849.337420 3576.094021 661.281535 -1958.214810 -1991.308266 -1999.747520 -2047.951273 -2060.305788 -2044.675734 -2007.730655 -1955.314533 -1892.798753 -1825.272422 -1757.688694 -1694.810802 -1640.955934 -1599.821185 -1573.859571 15051.225776 15470.453792 16478.193612 14715.091323 16170.293911 15367.795778 10317.632242 13274.375038 14395.313681 14785.729207 14967.300915 13441.885879 14161.915079 14969.216702 14031.457607 9792.104794 13701.089148 9120.668995 13282.480260 12211.697066 11814.243816 13882.562362 18367.915177 13785.571710 12410.471427 11121.521365 1664.279811 7432.639320 14752.621516 15055.675783 16030.839160 14930.499764 11895.961847 13637.505123 11991.488064 11729.386853 16290.089203 7223.699456 14539.768657 14723.359139 11510.337947 15354.422882 13467.109401 16216.250138 15582.958064 5567.447742 17965.230474 11241.432033 10959.018657 12896.487406 11491.149222 10538.522151 12609.426638 6303.758914 11783.065961 8968.002235 14492.536564 15410.573128 16877.425656 11866.275953 10213.649248 13750.852756 11661.933115 7045.572186 16201.093645 14599.338449 13784.231797 12176.534644 11031.174107 11079.507973 14007.563870 7198.433558 11529.186941 2192.132097 12868.647025 11999.288252 10610.930446 10567.303059 14583.332900 8985.904990 7739.156935 11614.119354 9463.017291 5392.274765 14168.595100 16061.041469 19784.861680 14228.890388 13749.467871 14951.854400 16958.485012 14859.830519 15382.902830 13793.715878 15615.912154 4103.520697 8746.791432 6213.313356 12742.576057 13272.035899 10773.650621 12378.063370 10634.802607 13140.085962 8205.940348 12508.122743 7454.427573 5117.011630 3190.714257 3125.359484 9112.621608 2454.687682 13800.123854 14188.304094 17013.059129 16132.045449 15276.792544 13354.688263 15623.880447 14980.769952 15923.411601 8846.820250 4898.477407 13467.659457 8202.083870 9198.060052 9563.737015 8486.761319 4333.537858 1855.551898 6012.323807 4950.612875 9289.011448 2893.329558 13710.694956 7815.322784 3824.853993 8801.102606 3277.441535 3673.902631 14034.135484 13171.995510 14050.096807 14558.439825 13812.901190 10012.517005 13276.086636 10829.688080 14852.742876 11149.959995 15388.817354 13947.222806 9965.487433 7967.954560 13272.825672 8239.814270 12680.935022 4059.533107 11844.080978 9653.001415 13578.638063 6169.731765 2626.442189 7141.057833 1233.789358 1458.702421 4261.396366 5103.364923 14956.872495 14882.290380 15292.138007 12987.358223 15672.077981 18135.562991 14094.240295 9158.157310 13195.383961 5035.661953 6563.689741 8162.998010 13920.166931 10067.844072 15034.209658 12957.806849 7705.601760 13213.786259 10632.422706 7591.399027 7360.113350 13043.196551 4238.826151 11268.539413 10714.921740 7233.511099 5549.716335 3645.558383 15783.396498 16572.279181 17491.355762 17178.614941 12751.712257 16544.225809 14596.969768 16795.916324 16934.642740 13578.272360 14481.691344 14673.539586 15079.979811 8451.521363 6685.775404 18228.607734 12758.933825 12869.336271 4149.862379 6723.983293 8070.353655 4137.633736 4822.381588 3841.288775 7896.455887 3744.519952 4024.252327 2444.852915 16160.760807 16677.205122 17691.561595 18499.481785 17604.564440 15824.203073 15946.147364 12559.929983 10792.410920 10422.018723 9393.012887 3506.395892 10255.679098 12573.989807 7327.111683 8209.018796 7007.692636 10091.270144 6780.516198 11474.067391 6466.736788 5031.470078 5616.349508 9285.064740 4038.536336 3208.973664 6181.644025 5552.358383 16328.351131 15741.047509 14741.892331 16779.584973 15992.856896 16519.199854 10003.616868 19987.033418 4670.389919 19611.081870 8261.104780 11248.763493 8374.797340 4908.920139 11913.524576 10213.619978 7384.726250 8422.322179 9391.214164 7640.992045 8493.977201 4878.772319 7767.417924 8530.434167 5194.134114 6724.936878 7560.735709 4754.420646 16421.135070 15927.754631 15408.910086 16716.516683 14055.231264 14437.460570 12282.254424 14268.026816 9938.815517 11134.635021 6546.393748 8286.338333 13653.714002 12608.675430 9614.277922 11616.020469 11465.733559 2806.589983 5505.617237 6234.744518 9016.392058 12460.501643 4896.270100 7687.747315 6976.627342 6989.539986 2514.753914 4409.789457 16273.890846 15549.220671 15430.888760 15985.845904 16815.202620 11559.968001 10565.838735 11696.406639 7888.131826 11179.097777 12815.034203 12199.017681 14573.404648 2073.767589 8768.013306 3693.028391 11233.039192 8407.576787 7812.256188 14664.601481 11730.470161 6937.995748 14319.865370 5083.656035 7579.548207 833.630079 5562.174633 6470.416602 16203.045830 14987.043528 13118.200058 18023.781052 13867.844788 16219.040791 16184.258623 14748.653808 8694.539089 16950.661056 10166.901916 6428.595385 3967.264018 5814.311115 2462.271571 9514.392767 7759.701050 4719.859959 5050.643424 5112.466519 4189.081764 5658.036598 3511.481496 9519.454743 5602.741712 6591.866608 9017.540239 3446.811815 16443.953676 15894.179097 14849.844150 16406.911929 17495.397833 17283.808563 17610.650783 14300.074719 14354.688493 12299.763421 10964.272386 8936.723765 5406.513112 3591.526016 5931.511063 5817.909783 3742.149694 3315.318832 2699.339976 4335.779505 7020.647224 1897.340893 3477.956898 6078.362802 5738.450240 2504.922125 3093.539137 620.154863 16464.042013 16314.380636 15564.582174 17397.963514 16733.927266 15892.781872 17591.136314 13601.554715 12927.244484 11072.360100 8143.232866 3365.619962 4062.430538 16386.102795 17213.757396 18364.780485 19773.400371 15121.755549 15165.761437 13980.378596 13443.031763 16952.638400 7863.511865 4921.879313 3459.829791 1792.092997 16547.817868 17145.553684 18380.090568 17546.072327 15654.561921 13905.152444 5573.877945 16626.940027 12722.405356 6352.286625 6848.118596 9041.784798 8730.338439 16820.952661 16549.825368 15987.655270 17359.084607 16299.800957 18726.161720 13801.539649 15176.864211 5677.270869 7159.100997 5269.034588 2571.279165 2751.719838 17075.646800 16865.463671 15895.012815 18650.482382 16939.245017 15974.164749 12293.669017 7256.486321 5714.366056 8961.353440 11367.422063 4635.034514 7942.776729 17312.079321 17277.382610 17693.450849 21396.286718 18488.700444 18663.252647 11430.847030 15565.825513 3237.364888 4700.600606 9175.956891 4513.144395 5765.980616 17471.918156 17233.484430 17488.757991 19844.286429 14973.968915 17627.321502 10636.229838 9692.014569 7853.365960 12461.795909 10950.180425 2543.880850 2293.997461 17587.676796 16757.764791 15644.805814 20701.665917 15409.062445 5147.072848 4618.093793 6630.467085 4441.402642 13463.433403 7388.333974 6299.068333 2625.955086 17734.490020 16735.702639 15074.179956 17749.601233 13581.943749 9971.893815 11898.474400 13898.042770 10171.879666 8374.493838 3768.588704 2670.359444 -901.811831 17710.186098 16981.326045 15827.102840 18015.136884 16185.531184 17600.882273 14471.708166 6743.639683 10163.409990 8053.250573 5549.913953 4132.121615 13736.277287 17637.697589 16843.118892 16260.080625 15033.320442 12621.134533 15145.613410 11652.634061 9138.569022 10766.258779 12112.949481 6350.179760 5189.380354 10914.214910 17915.031997 18417.686261 18727.823748 16770.371723 18436.333899 15943.260887 13443.879003 13177.906505 6570.580409 8671.202943 10670.543229 1716.389250 5212.078296 18342.556872 19754.574656 20693.477892 17940.167387 14738.277993 16611.273898 14416.509375 14576.088653 3019.561517 10273.104361 11631.859732 3474.977114 3188.988052 18498.622089 18713.199605 19127.534235 18806.222466 13404.436689 14288.993496 16311.023897 14897.898412 4784.263215 13714.851912 4516.697772 2917.327790 3363.292294 18394.964618 17373.708167 16606.400133 17640.106456 14363.843972 15934.086959 13948.634009 16739.428585 10895.982136 14813.912836 3294.145370 5847.728274 6818.847107 18398.316420 16593.498680 14576.583492 14363.370230 15330.145565 15579.913650 16855.074693 15932.008182 11280.950968 14004.585084 7391.136093 5010.902879 -2356.567119 18697.119986 17986.737087 18162.657141 10650.027502 17443.881319 16933.395257 13473.929810 16096.247389 5623.177444 9404.890416 2715.569030 5824.486224 3819.757777 18860.233279 18482.942909 17771.491975 17887.393403 16969.135639 14126.471131 13472.688037 13864.228180 9527.469550 14896.808959 4560.088830 3098.033168 3520.645225 18685.049234 18881.325250 17653.542579 16269.406499 18188.954044 16858.402208 11560.589268 14181.291557 12655.639965 6238.746966 9491.373893 11010.852315 1412.977238 18377.927782 19942.691258 21179.882946 17072.597440 17764.565359 14152.673223 14497.141567 7763.092356 10580.606436 11560.483841 14889.455396 4438.630747 -7650.548682 18133.311100 20332.264797 23679.576099 15827.247885 18129.936934 18868.087053 14628.073355 8965.273505 13664.182681 8126.946662 5349.288530 1871.677792 6162.377492 18112.580662 19470.024750 21561.776463 18452.051904 16078.762563 18165.582156 8785.446075 11370.351330 10073.872101 5826.305456 8111.313507 4107.531796 7388.502576 18347.291585 19037.842206 19374.194169 18446.692962 17443.986167 15055.772019 13555.932315 8961.291261 10570.344837 4668.393249 6844.000013 2303.895005 5991.258808 18720.969993 18749.091630 17648.637536 19050.123887 17931.734202 12861.053580 12657.268665 11987.143774 6932.306311 5932.891491 4286.522370 4936.034604 5181.185932 19005.143385 18450.452885 18277.750132 18683.090687 18399.321050 17424.458151 11348.003054 15313.536625 7881.316733 9793.299315 10656.589718 5553.182679 -2446.712063 18987.737869 17672.410283 17365.595172 19948.253258 19668.955275 6795.871980 11330.050264 12212.793095 13467.362887 11876.367461 8821.559901 7047.071283 4446.437832 19168.396564 18076.509157 16600.950058 18433.353493 18307.909090 14022.248199 5937.261912 17754.961395 7970.605900 11348.780181 6552.887835 5753.804056 2387.586928 19585.189664 19005.885176 18533.640405 19721.736427 18480.038357 18691.637006 5987.935958 14107.803341 5693.561473 8004.041379 12387.523385 5008.187922 5411.024148 19748.225387 19452.513570 19566.194380 18308.147252 16721.004765 12343.064599 15470.603426 16005.280537 8896.569025 7455.471789 7629.623369 2180.155168 11391.143520 19832.616640 19886.885116 19874.835685 19520.223450 19454.860449 17695.631584 17610.896570 16205.330130 7324.947599 7472.812946 4252.781525 4373.905336 10919.203943 20173.407720 19616.743113 19091.834903 19977.266186 17631.162453 7785.379023 8791.897835 16183.858683 16769.508898 11622.490995 9779.812067 6231.539787 10780.553970 20199.572491 20986.124481 22950.073650 17406.127340 16174.262476 9386.216205 13850.317241 15879.120154 7961.403236 4227.052564 5109.507443 9152.173321 4506.516968 19434.565401 19406.074514 20009.844847 18981.697271 17190.659551 17320.279037 12667.717943 13739.878432 11606.352210 6245.198690 3226.478642 10091.310403 7489.842750 18868.668447 17969.283226 18228.782118 19997.042277 17874.140787 15918.908479 14098.365103 11437.007635 8042.203529 9877.452329 10683.346520 5554.039300 9065.128684 18722.948887 18511.650365 18989.244529 17767.109238 19705.297564 14523.359746 17059.697843 12395.831332 7380.453703 11786.999587 11225.994864 6354.413789 8793.480141 18595.209598 18881.999926 20339.093708 19297.523802 16924.081594 17482.455319 17164.299401 12865.453133 8649.083695 6114.648450 8071.643571 7706.900273 7144.905748 18414.710552 17936.559151 20129.183046 18756.578955 19087.959039 16361.984219 13955.305535 17123.772378 9064.855486 8948.000450 6767.922147 7981.437269 15110.926724 18367.047715 15355.318204 14393.993138 19813.943448 17179.835698 15822.802471 20318.931710 7526.615351 8086.463015 8453.579520 6816.655656 10289.129184 4628.653900 18772.932765 16549.088990 14810.230104 18835.960314 19379.480004 16216.493836 7942.553491 4373.563269 6108.572612 10676.623884 5835.318498 5405.724728 5397.059887 19267.759628 19231.110647 20177.568073 18483.663170 15077.569410 18370.354218 11199.395974 7122.592577 11233.570274 9034.951769 7732.171788 6368.391211 12260.342823 19399.968373 19703.044024 20077.007086 19409.069820 20741.128013 15491.045484 17016.355316 13394.575650 10122.773340 7308.603773 9320.241008 8412.594404 3439.400176 19075.283140 18321.157254 17137.213165 18144.297540 19109.510640 16736.352927 10324.849488 10589.058552 14553.843176 11464.643006 10944.741679 8490.078468 7066.391343 18781.316039 17846.408688 17505.657483 18954.769674 16808.300536 16529.903224 17239.896170 12787.552426 14235.928767 8265.727775 8467.321982 8084.924135 5999.825965 18789.515429 17595.648291 16604.730099 19465.042971 18618.387813 15589.136632 12604.793808 10781.479481 10496.930147 12051.300601 6613.134375 6929.120276 19806.774578 19017.903803 19499.174628 20429.469107 19462.228570 18672.895407 14561.778343 11630.147080 15904.540365 10565.626641 9395.746117 6742.261828 3913.158735 8419.117178 19069.597994 19079.218671 19990.837593 16616.877436 18327.572241 18393.258405 11967.721365 13082.025496 14487.954847 11043.644965 8429.517875 8949.569202 4676.635463 19148.450817 19439.244756 20219.898872 17402.412141 16865.442791 13913.993936 10448.843159 13553.557985 12067.296672 12225.976548 9211.693281 9154.914947 5882.320136 18886.210936 19256.678742 19702.723391 19157.359083 14881.541230 11333.790059 14232.424898 14431.039202 10666.294154 9449.651802 9433.464402 8396.746887 6014.918848 18013.436040 17516.347340 17633.290557 17364.701758 16166.081094 16028.204185 10143.362546 11595.847865 9254.218654 13086.353467 9417.203163 12584.819403 6189.823122 17013.753026 16661.287658 16787.712918 19578.418094 18432.012326 16066.818186 17008.139848 13251.866703 11502.193485 12440.301732 8747.527616 10301.706916 9474.186923 16307.422757 16809.262195 18631.750784 17296.825893 14273.077087 16378.529093 15907.672981 12151.485662 9734.023285 7080.081810 10364.686672 8097.969990 8782.272306 16282.250918 16294.998172 16865.487899 19041.948925 17792.701383 13818.618678 14163.037506 12877.599556 12993.934733 10627.920022 10715.927451 6844.197206 3916.850862 16703.159636 17026.896215 16539.927579 17116.204999 18034.338198 15715.804582 14821.728765 13565.672359 12460.775615 10783.529774 9644.601220 8851.602059 4013.905175 17003.203978 16940.432783 14970.795031 16512.667821 17566.980975 15589.211617 9619.866948 13122.568436 11120.281626 8412.946487 12658.392652 6584.860054 6551.757202 17022.661849 17598.020995 16955.427431 16907.519032 15731.373962 19871.180877 10360.784108 13775.235221 13468.403090 11402.934911 11693.956221 3632.418459 4784.854618 16712.218611 17195.433426 16092.730155 17540.903468 15362.340504 17718.034129 17109.664242 13459.816307 9174.153983 11721.506089 8883.925512 11334.479989 5783.511579 16376.077548 17132.814984 17526.228269 18454.199302 16364.489087 15565.472969 11077.387761 12753.751950 10119.703483 9568.343267 11842.801485 6132.828737 4170.543060 16081.110773 17161.549752 17703.088279 15292.229632 15759.192157 15041.972247 13324.141703 13598.430056 9780.867595 9389.916969 8403.680664 8695.683496 8311.494953 15779.425353 16355.276182 16747.049528 17486.339543 17649.155736 15924.317719 10094.123108 9574.494955 6901.260896 6045.152579 6685.485240 10158.540584 4494.882273 15601.452434 15704.561029 15606.363480 18064.441431 17557.278620 14624.593684 13669.360323 10488.806602 10780.438009 9585.464646 8690.493308 7646.608708 4330.587221 15624.865568 16203.314800 16625.578530 15418.306958 15806.669915 12014.314497 12655.311079 10985.913109 13150.800791 8600.865931 6845.238108 7204.541080 5525.583031 15606.765404 16250.761988 16711.711546 16077.287372 15454.232127 16495.099628 14318.818403 12531.277820 11730.175838 10066.812058 4454.835835 7209.035049 3727.258555 15285.162868 15825.983587 15835.850332 14464.627897 15171.140891 15442.302838 13332.018509 11305.134521 11664.169106 7676.755489 7605.092326 2699.211092 4346.687635 14876.345284 15093.518331 14425.444253 15224.048668 14086.529220 11250.094955 11736.380196 11051.397568 6143.930247 13552.811204 8695.880643 7185.634923 6990.381937 14800.532100 15739.815433 16669.054984 15428.488690 13183.632647 13816.289490 14331.298218 12890.696892 10295.790042 12564.424981 9811.314512 8586.256063 9071.767111 14545.211533 16396.442394 18168.588084 14740.710812 14314.503349 15020.629212 11133.986794 12784.633888 11303.096504 12435.022659 10509.397676 4730.663721 3259.813389 13884.060199 14777.140331 15971.259904 15982.126089 13227.680747 12960.117654 11476.790205 11961.279871 6421.020423 8972.635731 9217.104084 6706.676877 5305.916900 13370.120723 13394.865456 14843.165372 16153.804867 15403.233868 13842.811692 14607.416007 11966.120260 8378.822887 7635.227567 8462.436168 4838.456196 8519.215225 13163.564114 12935.252355 13494.717697 16238.122729 11632.464197 11606.266293 11156.483768 13465.679170 7689.699397 12018.336103 5717.859009 4651.352701 9747.135133 13180.781196 12994.808901 12690.939013 13369.551868 14686.133893 14419.438872 7863.317134 9481.090570 9710.770057 8629.549254 7092.825596 10376.520996 2752.431632 13487.293222 13926.156721 13044.330075 14759.337091 13594.277458 10986.215588 10445.340288 12392.111961 14243.976854 11421.427896 4689.261688 4614.316160 2585.557278 13829.677674 14900.332611 14344.635462 16161.624467 14061.226071 11854.116014 12685.404415 9759.628522 13795.039700 12960.308650 8932.775743 10939.523863 6999.393167 13782.577243 15840.550272 15653.222951 12836.450685 11942.209610 12729.565537 9161.714569 10315.659701 9474.516455 6952.944540 8866.884922 8070.981417 5944.140307 13107.335086 15332.662172 17286.103760 12943.469686 13269.622347 12476.868157 7496.298670 10874.351873 5976.392152 7039.498058 8696.311498 8917.707458 5458.600646 12358.623376 13407.612385 15248.589992 16361.699507 10028.647796 10539.482744 11943.933046 9638.800164 9694.613813 9805.017782 11201.481593 7225.564100 9651.180484 12397.185181 12711.565972 13920.589002 12067.154987 12032.338896 11911.446372 12432.007378 12309.672942 9359.832018 10354.966821 5636.901568 6255.726169 3452.424635 12938.727473 12661.587825 12022.346354 14074.004776 10258.567513 10167.982162 11800.558571 6646.682396 10964.433640 6211.261560 6087.952637 5511.314005 4075.800047 13371.160167 12791.433586 11905.096086 11599.688967 11589.486784 14503.505080 10225.648261 10869.272691 12149.031849 11685.388227 9207.050785 6348.923392 9639.313531 13503.366743 13036.621885 12538.324660 10793.148198 11433.049953 11658.723568 11253.700863 6111.120696 10819.193739 12184.740547 9800.005558 3841.776710 5681.149098 13401.885828 13498.821762 14608.100860 14854.454958 11476.370884 14458.112810 11697.164477 8408.481365 12873.888720 4359.735211 11898.887080 9503.352901 3758.527169 13242.389846 13761.093778 14824.859714 12124.964653 14194.652542 10053.554898 12631.267471 11579.182661 12942.107856 13013.338888 11351.385464 11310.345609 7925.070463 13085.692856 13978.770316 15384.528544 11221.717480 9734.019858 11785.290882 10806.358760 13275.596908 11700.457970 10877.811455 11062.305069 8249.051799 4783.077727 12726.135821 12711.399083 12709.078700 13115.401773 12117.330778 12029.463644 13104.752874 11990.825904 12405.817689 12076.823999 9536.031611 11756.553333 7956.495797 12368.153620 11897.966118 11284.692840 12703.191055 11999.060891 11741.662355 13748.846776 12453.692259 13149.988016 10293.780390 12084.262212 11517.116767 15183.831673 11988.445431 11572.002545 11220.930289 13230.677969 14067.786008 11413.151628 14313.666769 9799.919394 13798.471066 11391.717169 14333.509673 13894.591165 13569.388280 11729.024724 11563.611576 11094.248003 12075.992683 14670.361118 13198.317145 13941.896264 15801.578371 15580.066104 12982.891760 13747.675496 14404.906037 12885.711201
</DataArray>
<DataArray type="Float64" Name="Velocity" NumberOfComponents="3" format="ascii">