<VTKFile type="PolyData">
<PolyData>
<Piece NumberOfPoints="2177" NumberOfVerts="2177" NumberOfLines="0" NumberOfStrips="0" NumberOfPolys="0">
<PointData>
<DataArray type="Float64" Name="Pressure" format="ascii">
 12199.523164 12002.003767 11659.973044 11228.803521 10688.912988 9976.300854 9075.731048 8034.483479 6888.011341 5666.577323 4310.021216 2770.760554 1220.518461 -37.460291 -854.072243 -1335.819431 -1742.009467 -2460.494042 -3607.454199 -4601.365372 -5111.714374 -5364.264105 -5452.247268 -5400.773696 -5258.220132 -5058.418039 -4820.256765 -4549.504417 -4245.756942 -3918.771226 -3588.503542 -3269.693388 -2969.277572 -2689.821579 -2431.683947 -2194.077579 -1975.644147 -1774.817651 -1590.058371 -1419.986106 -1263.434370 -1119.448342 -987.248896 -866.181622 -755.664846 -655.145652 -564.069059 -481.864259 -407.956393 -341.831706 -283.241046 -232.667407 -191.863664 -162.902584 -145.718419 -138.356382 12154.040216 11980.517386 11701.453346 11357.810190 10897.379610 10187.186767 9226.605578 8183.681429 7012.360044 5863.365089 4603.233470 2938.349640 1095.590368 -314.254779 -1016.946483 -1326.114666 -1643.560747 -2624.464777 -4655.501325 -5969.192634 -5761.538280 -5579.668758 -5524.917177 -5429.151266 -5271.560692 -5070.097836 -4839.322098 -4581.228228 -4274.748398 -3932.355217 -3593.688162 -3271.648880 -2970.164710 -2690.356544 -2432.090210 -2194.422697 -1975.949405 -1775.091727 -1590.306867 -1420.213751 -1263.645203 -1119.645526 -987.434589 -866.356947 -755.829798 -655.298471 -564.203708 -481.961667 -407.955900 -341.543624 -282.101117 -229.570494 -185.936037 -156.878024 -141.137517 -134.892238 12181.271708 12079.526426 11890.504575 12004.394653 11572.319174 10703.898872 9398.412471 8775.641622 7340.834895 6371.592910 5510.263076 3508.364877 780.474734 -1163.706972 -1380.179606 -1328.442241 -1427.733306 -2438.587716 -5863.332078 -8230.753803 -6801.876700 -5852.174215 -5614.666617 -5463.091168 -5287.478452 -5084.576618 -4867.018906 -4645.161273 -4343.404683 -3952.583500 -3598.899724 -3272.941550 -2970.289258 -2690.136675 -2431.782059 -2194.108126 -1975.653657 -1774.820612 -1590.059291 -1419.986387 -1263.434440 -1119.448308 -987.248704 -866.180964 -755.662671 -655.138493 -564.045513 -481.786835 -407.701931 -340.994388 -280.512965 -223.203923 -171.725572 -145.143993 -133.323703 -129.137105 -142.654316 -130.568059 -125.391065 -117.599777 -113.322425 -110.770258 -94.494349 -93.464385 -92.483289 -76.809972 -76.536040 -76.193434 -62.387845 -62.331388 -62.200022 -50.500267 -50.504463 -50.443003 -40.695345 -40.714588 -40.677892 -32.635050 -32.655997 -32.629731 -26.040175 -26.059156 -26.038554 -20.672454 -20.688696 -20.671960 -16.327163 -16.340741 -16.327013 -12.828830 -12.840042 -12.828784 -10.027898 -10.037080 -10.027884 -7.797744 -7.805212 -7.797740 -6.031904 -6.037939 -6.031903 -4.641482 -4.646329 -4.641482 -3.552766 -3.556635 -3.552766 -2.705050 -2.708119 -2.705050 -2.048680 -2.051101 -2.048680 -1.543317 -1.545215 -1.543317 -1.156408 -1.157886 -1.156408 -0.861855 -0.862999 -0.861855 -0.638878 -0.639759 -0.638878 -0.471038 -0.471712 -0.471038 -0.345417 -0.345929 -0.345417 -0.251926 -0.252314 -0.251926 -0.182744 -0.183035 -0.182744 -0.131839 -0.132057 -0.131839 -0.094597 -0.094759 -0.094597 -0.067505 -0.067624 -0.067505 -0.047909 -0.047997 -0.047909 -0.033816 -0.033880 -0.033816 -0.023738 -0.023784 -0.023738 -0.016572 -0.016605 -0.016572 -0.011506 -0.011530 -0.011506 -0.007945 -0.007962 -0.007945 -0.005456 -0.005468 -0.005456 -0.003726 -0.003735 -0.003726 -0.002531 -0.002537 -0.002531 -0.001709 -0.001714 -0.001709 -0.001148 -0.001151 -0.001148 -0.000767 -0.000769 -0.000767 -0.000510 -0.000511 -0.000510 -0.000337 -0.000338 -0.000337 -0.000221 -0.000222 -0.000221 -0.000145 -0.000145 -0.000145 -0.000094 -0.000094 -0.000094 -0.000061 -0.000061 -0.000061 -0.000039 -0.000039 -0.000039 -0.000025 -0.000025 -0.000025 -0.000016 -0.000016 -0.000016 -0.000010 -0.000010 -0.000010 -0.000006 -0.000006 -0.000006 -0.000004 -0.000004 -0.000004 -0.000003 -0.000003 -0.000003 -0.000002 -0.000002 -0.000002 -0.000001 -0.000001 -0.000001 -0.000001 -0.000001 -0.000001 -0.000002 -0.000002 -0.000002 -0.000002 -0.000002 -0.000002 -0.000003 -0.000003 -0.000003 -0.000005 -0.000005 -0.000005 -0.000007 -0.000007 -0.000007 -0.000010 -0.000010 -0.000010 -0.000012 -0.000012 -0.000012 -0.000014 -0.000014 -0.000014 -0.000010 -0.000009 -0.000010 0.000008 0.000008 0.000008 0.000055 0.000055 0.000055 0.000164 0.000166 0.000164 0.000399 0.000403 0.000399 0.000876 0.000882 0.000876 0.001801 0.001814 0.001801 0.003541 0.003563 0.003541 0.006719 0.006756 0.006719 0.012374 0.012438 0.012374 0.022203 0.022308 0.022203 0.038898 0.039069 0.038898 0.066644 0.066913 0.066644 0.111765 0.112182 0.111765 0.183588 0.184217 0.183588 0.295484 0.296410 0.295484 0.466074 0.467403 0.466074 0.720478 0.722336 0.720478 1.091422 1.093946 1.091422 1.619871 1.623196 1.619871 2.354743 2.358980 2.354744 3.351085 3.356280 3.351089 4.665981 4.672070 4.665995 6.351375 6.358128 6.351423 8.443019 8.449981 8.443184 10.944876 10.951364 10.945440 13.808616 13.813875 13.810540 16.908122 16.912073 16.914652 20.008959 20.014900 20.031071 22.731317 22.755230 22.806008 24.497885 24.600646 24.749664 24.432139 24.834153 25.278459 21.040323 22.586725 23.895936 11.548720 17.549182 20.817361 3.202184 13.944057 18.973161 11682.678506 11845.928175 12371.037359 13116.540604 11720.451023 14011.857258 12748.707028 9507.018528 8505.646764 7167.218096 2146.209528 -11.695038 -983.388485 -1319.988188 -1031.454018 -771.469873 -743.801367 -951.956609 -1317.109545 -1755.068258 -2207.242437 -2640.869866 -3038.664995 -3389.716647 -3685.011713 -3916.630530 -4078.626375 -4168.099239 -4185.764965 -4135.881119 -4025.657772 -3864.360297 -3662.306320 -3429.924308 -3176.994650 -2912.140731 -2642.583233 -2374.124207 -2111.296087 -1857.598385 -1615.750038 -1387.903101 -1175.787006 -980.775820 -803.889317 -645.750042 -506.522267 -385.854873 -282.836993 -195.939116 -122.851347 -58.772474 -10.257334 8.523393 16.530883 19.944033 11101.006526 11690.015166 14272.699027 17702.504652 16019.284833 15715.750568 14415.353801 11886.129916 8709.771553 5778.075841 2424.525667 134.092707 -825.981009 -1041.633364 -873.748694 -699.366496 -715.098419 -941.594777 -1313.424017 -1753.520237 -2206.307308 -2640.070508 -3037.834317 -3388.784205 -3683.958565 -3915.477933 -4077.423609 -4166.908727 -4184.648628 -4134.890394 -4024.827875 -3863.708365 -3661.832721 -3429.616157 -3176.830481 -2912.095284 -2642.631499 -2374.244232 -2111.470356 -1857.813950 -1615.997731 -1388.176267 -1176.080165 -981.083599 -804.205943 -646.069859 -506.842541 -386.185309 -283.231216 -196.605586 -124.514917 -65.159046 -20.310515 3.583508 14.817796 19.312871 10409.831617 11003.585831 12381.429399 14295.894078 14190.644639 13635.084730 12561.958798 10380.245124 7685.929656 5018.866683 2529.455034 619.210047 -440.654036 -770.638882 -715.868984 -620.013824 -678.966812 -926.464324 -1307.653346 -1751.646236 -2205.977541 -2640.364050 -3038.435326 -3389.597280 -3684.942964 -3916.588445 -4078.599792 -4168.082195 -4185.753965 -4135.874005 -4025.653174 -3864.357333 -3662.304416 -3429.923091 -3176.993876 -2912.140241 -2642.582924 -2374.124014 -2111.295968 -1857.598314 -1615.750005 -1387.903118 -1175.787147 -980.776353 -803.891167 -645.756364 -506.543750 -385.927648 -283.082806 -196.769400 -125.608963 -68.810857 -26.908370 -0.664550 13.206111 18.820437 12295.540745 12168.519289 12050.641998 12694.425141 12320.551066 11507.611789 9630.019941 9861.998287 7815.039106 7106.147512 6965.060100 4262.040811 902.635722 -1665.271406 -1628.298750 -1330.209885 -1294.982929 -2284.695697 -6395.343835 -9098.979093 -7122.725115 -5912.286126 -5639.020432 -5472.926613 -5292.240865 -5088.927708 -4876.856217 -4678.873526 12706.781691 12756.939888 13180.970747 14318.635433 15229.739944 14519.059451 13176.376985 12286.937023 14375.926270 15329.847509 16626.036396 13277.293620 11717.705390 14871.879632 14231.306036 10586.842864 15678.534449 14446.744501 10969.392405 13237.182729 14461.678544 12894.445071 16493.759264 15010.528795 13508.535984 10288.618158 4139.784600 -7506.203040 13109.736888 13215.596314 13595.410715 15729.746218 11695.098038 11155.572445 13134.589301 12331.200748 14560.877995 9310.332919 13351.407906 14337.660730 11165.299233 13678.038120 12595.470787 15314.465147 12521.847670 10008.811085 13885.858764 10807.691137 12832.662708 12826.989488 13447.888215 12502.221234 9276.475578 5183.949200 9643.744767 6103.690345 13470.324645 13334.165637 13131.686781 12316.565220 13805.326858 10198.974194 11393.949720 9392.659520 13777.937220 10263.969443 13833.870510 15788.700128 12051.080198 8931.594676 12064.745408 6399.548080 9111.078202 6325.191274 12261.267045 13456.318127 9193.120366 12247.450374 14238.413308 8614.907540 10476.778560 10660.633169 6718.301649 3338.279769 13744.337155 13876.696328 14549.668591 12247.517134 13500.629939 13207.505485 15905.814256 16772.877909 16594.621016 18041.075096 13024.973486 8719.249658 8320.572501 6431.041413 13048.041017 8214.803575 10319.270370 12836.357203 9082.646182 13550.518769 9422.181833 12362.147982 7186.244414 7723.898784 2845.775077 7487.424098 8969.442952 726.215460 13698.852570 13858.004552 14013.400031 15073.713443 17161.997035 13432.006551 17475.960623 17592.118812 17942.717863 7951.981034 4679.782516 10481.440203 6083.449524 7733.570871 10175.948545 9822.783805 5949.061693 3388.792834 3573.994006 3752.555893 9148.912390 6309.555432 11570.471970 6600.740634 10410.873427 7593.544529 5605.404046 219.797238 13684.030809 14278.899630 15813.107446 17514.003081 15234.503446 10823.814005 14340.471479 11209.965055 14944.843364 14065.542795 12927.550424 15176.134874 12051.871244 4477.844336 9766.146652 8531.764899 12890.696153 4138.792849 14062.036393 9048.237079 7694.859605 4116.828535 5138.620643 6853.980678 7746.282475 7192.009667 4102.723960 2824.289898 13770.479303 13791.238570 14804.247192 14186.709426 17382.568980 16421.536260 15279.288333 8547.981399 15380.524095 7999.446078 10472.567126 7714.801679 13579.448890 14370.259405 17072.425511 15318.127350 6763.065357 12690.463971 11394.374186 5502.215940 7060.102873 10681.153764 4458.865501 11155.615306 6450.784456 4792.392007 6201.225981 3171.810902 13919.540657 13623.966050 14210.938769 18226.427790 15055.444333 19419.568962 15486.482871 18215.993155 19385.338852 15876.182375 16980.461930 14947.807385 11744.999608 13916.472979 10292.871145 16639.471661 12871.103200 11729.251014 3848.490053 5216.257317 10901.542164 915.898338 4453.670995 7267.833914 10148.011244 877.133204 6133.583184 5135.752295 14170.607939 13915.813334 13826.846715 17735.591440 19280.993744 19339.039095 18797.066957 16181.931574 15837.831706 12895.678742 11495.532834 7306.863141 14913.367928 13538.260689 7310.754842 8457.410048 6067.802095 11734.557690 8370.439867 14298.550049 6405.467727 4899.350449 5689.664872 8692.817543 3174.283695 4225.576251 5016.418349 6980.371745 14590.157899 14604.527973 14545.024221 18803.416259 20564.332723 22025.941295 13968.376241 20383.176275 6417.435203 20383.638767 7136.057296 16331.504461 8214.339018 5590.495962 11365.382837 10343.110422 9709.604855 8997.749549 9701.139027 9410.499281 7874.794017 1847.640817 6645.716558 7539.800060 3137.103156 5682.336368 6444.046669 5597.931961 14975.604851 14699.947978 13462.354991 18428.480081 16765.367977 18782.861439 17412.296411 17043.247503 11746.488874 11997.599184 6679.609562 15933.637253 12113.317503 14864.633962 10837.764333 11494.719212 15921.517620 5914.919750 2456.805669 4264.685370 10486.753455 17135.112412 4751.621455 11386.659422 4246.878160 5372.311661 3031.840142 2929.706089 15063.028221 14585.040981 14368.632247 18924.332606 19826.243453 15492.592494 15086.818507 17322.885939 11382.000488 15571.039568 15345.848197 15437.433956 16402.638346 5495.901468 12902.582488 1347.882753 8829.110783 5207.071533 4862.866108 14978.941493 10933.681382 8506.205073 9508.257558 9136.335263 4900.227586 1327.818859 5334.752229 5282.355262 14932.943852 14136.123588 14538.289107 21169.770323 17131.190890 19186.455011 18372.016561 16815.298471 13719.802726 17176.484949 11808.943072 4767.134809 4649.711784 844.267488 3067.840629 4536.734435 9018.475577 2841.539174 4342.266314 1923.714539 4490.568272 2632.924683 1608.039564 11287.194619 1764.516066 489.690113 6319.799968 1110.547775 15028.860505 13884.766415 13420.090574 21102.397452 19258.553865 19978.774245 19972.225588 19451.408442 18591.503317 15420.222459 7539.593983 7280.106370 2348.583612 3510.788354 1360.996517 3436.178476 2141.585935 3395.068602 1602.183554 3226.426974 5647.103593 1550.965725 2326.258217 3572.032290 3179.353384 2492.891189 3375.870852 1766.274860 15436.290907 14684.949557 14309.799026 18210.522028 19670.835170 20440.704621 20130.881002 18637.586685 13533.094487 11627.110605 8698.937985 2137.061206 683.077901 15904.184329 15879.970670 15775.958140 19902.377530 20364.460660 20482.829862 16866.756153 15439.721650 15098.995569 7350.749496 2821.339988 1398.748446 730.844369 16252.418778 16228.070202 16044.258967 21230.618698 15227.496176 12713.168051 5967.142708 14478.912454 5866.983462 5211.390475 8110.848275 6851.773291 5841.316150 16508.590316 17314.049334 18717.790745 20228.360030 19981.554694 17665.615173 14010.364543 11005.261225 5378.375186 7649.711760 2220.248633 2586.696106 3327.157092 16725.433228 17353.967385 17798.252416 20544.106456 15124.872677 15375.262943 11506.183596 7707.606432 6441.597682 6448.320166 10505.986678 3679.942314 349.722989 16984.634366 16842.065652 16185.430674 19266.081790 18999.012252 18503.263264 10858.444911 13955.713657 2764.005376 5396.518359 8872.858409 5281.316064 4049.314809 17258.627487 17121.459278 16835.673631 19724.968640 17319.726751 16614.735696 8307.871818 8315.448177 8824.816448 10522.012296 7618.467468 4028.046313 1822.141809 17602.174090 17790.169375 17905.928752 18800.026755 17293.754563 5455.597277 6448.485177 5342.108043 3963.782532 10566.852645 5092.504560 6167.598314 2479.085916 17980.061424 18514.648842 18839.533342 16263.899664 14404.383433 9059.089068 10673.320515 10411.607764 10804.855613 7518.109883 4878.219456 2060.991674 1140.434438 18283.543979 18428.999421 18156.027704 18919.480935 14975.328967 14139.766949 15620.825990 10114.029198 8520.430328 5743.486590 6812.377553 6958.627537 10021.910207 18609.980336 18117.420925 17290.821881 17540.920600 14364.109677 16035.973966 8855.019283 9960.939910 6223.498915 11183.101405 5747.878184 7089.774108 6501.612496 19024.273046 18778.831959 17774.934768 16993.206254 18959.517164 12219.873977 11209.909354 11896.125678 7301.266981 9072.819742 8579.630964 3712.995808 4334.117818 19350.839046 19695.271506 19866.019617 19225.121856 15308.935651 15419.330356 13045.420751 13405.394564 4850.324278 8603.361747 8825.959647 3690.715386 3004.442270 19384.601251 19629.141938 20451.229061 16226.569009 12477.232907 10794.125586 14914.301055 12747.768053 7037.484975 14212.614833 3006.431074 5798.165636 3680.829608 19119.001054 18925.203522 19901.255741 18879.311038 14092.459318 15477.625936 15514.265664 15853.109663 10085.775314 13818.004847 2659.769626 5886.486963 3916.165425 18945.551047 19008.648117 20237.558694 17310.045199 15990.499784 17016.800583 17555.398255 15658.283417 12056.137758 13792.889520 6251.038992 2793.532751 3739.160333 19307.896823 20214.805518 21462.042495 13151.778936 17168.539472 18483.532773 13489.924404 15802.590299 6512.961137 6613.402152 4004.624407 2392.066799 4465.734229 19930.322671 21446.355893 21875.682060 17787.542497 16998.648030 15126.401652 12774.833633 10391.933892 11044.387002 13903.194295 5478.330039 3762.399570 12439.061716 20166.343626 20430.589034 20019.529542 17182.585419 17470.571743 17164.115133 13368.442530 9062.861408 10326.782368 3753.256578 5890.692189 8830.387859 4176.453824 20246.801599 20510.922335 20221.908052 17993.661142 17174.996034 15589.815414 15938.479157 8135.550701 6932.183580 11292.469219 11122.782871 6587.173592 3346.355290 20441.699261 20733.685156 20192.073788 17190.836909 17199.319052 18196.638727 14346.396161 6631.565667 12618.375724 8620.568387 4140.278890 4833.936882 3461.400310 20695.640310 20692.359051 19687.690384 18526.366969 17312.578532 16271.056753 11600.122252 10584.179280 9982.572707 5503.010318 4501.804109 5662.104040 2876.048457 20938.183376 20890.946853 19471.364562 18202.435962 16955.879314 15727.400822 12812.837063 10870.115337 13397.341954 7421.285499 7407.864858 4215.207274 5017.215003 20944.181497 20622.132930 19108.449519 18514.056926 17406.939345 10377.677257 14377.957951 9614.176312 7239.742643 5672.466490 4949.954804 4651.253213 2197.775553 20749.122912 19752.421696 17933.486953 16662.612181 16877.358290 16032.987590 7055.552899 12947.499985 7795.404931 7430.866539 8399.501714 5220.467179 3377.398648 20627.888865 19419.814657 17723.475166 18022.224036 17858.070444 8360.953398 12201.544981 11421.643634 14567.390560 9981.834671 6643.851693 5390.780800 2105.780158 20646.044498 19812.891871 18155.667365 15472.773637 15577.849271 14571.293203 7752.858370 16109.027663 9723.186839 11059.038260 4667.991645 3138.548584 -1436.520426 20593.556709 19325.164025 17510.840981 17577.369674 15495.252853 16186.552880 9106.483847 12512.145054 8569.882897 8100.583399 8178.760842 4140.300801 772.901229 20641.112137 19627.720196 18925.203822 17345.475671 13792.199400 14110.226134 16304.114458 14540.515610 11274.956106 8084.260692 2263.236732 3322.787535 -186.856447 20754.773435 19902.429193 19073.672552 18293.046243 20345.761249 14734.530152 18447.038907 15701.364313 7922.573461 8800.351570 5966.076229 5186.209863 1044.960394 20741.552675 20428.767526 19685.870410 17781.625794 18395.015589 10184.854805 11307.100777 17497.076878 14281.862175 9061.442785 7570.582592 4367.987678 3709.917192 20383.249596 19139.751401 18059.335165 15804.385289 13610.235741 11389.343039 12134.923665 14510.134776 5873.067924 3793.444481 7308.572419 6963.899355 8993.596829 20111.053071 19216.739688 17976.226126 18482.990089 16047.405487 16080.018723 11321.388293 11458.227256 8876.977966 5469.381258 4232.476342 6130.644032 1911.235871 20020.513989 19608.210077 18686.059990 18533.866117 13991.528806 17683.763553 13287.664613 10280.731609 10367.325077 8581.892926 10480.604929 1442.759129 4213.191966 19932.925724 19671.444247 19477.653034 17344.703469 18156.653916 13706.936885 14255.238050 13156.786099 7594.329989 11011.508573 9026.193456 1908.892247 6203.328457 19880.939345 19408.400295 19168.181893 19311.227442 18619.458930 15522.400118 15315.110416 10614.613718 5987.270610 3044.788638 6734.069652 4573.574239 2906.494124 19914.851217 18645.790972 16600.085402 17861.241847 18237.332694 14466.677061 14208.937229 14986.858565 9983.285825 4476.045523 6916.228949 4465.419643 2333.918074 19921.467822 18302.192543 16644.548266 18538.722064 17403.688906 14119.170375 16482.664124 7323.193169 4638.982152 7412.275782 2710.923758 6165.244498 573.291886 19905.822908 19266.060659 18526.192783 17913.179311 17757.013386 14959.380134 6673.640401 4287.719187 4918.426112 7716.229896 2633.577511 1254.325927 9493.292124 19756.861926 19614.486737 19481.035454 17738.331144 14972.918076 15692.417604 12504.947018 5366.557007 11248.013225 3815.850784 4053.658048 3716.003090 1858.669785 19647.525810 19019.230119 20568.833743 17563.599218 15643.698003 13093.945146 13295.333201 12020.148954 10689.021042 7788.793274 5649.748537 4886.758838 6571.632881 19962.554861 19554.154416 17732.087318 17353.009444 16134.788365 13001.241437 12199.953186 10113.553044 12183.906268 11645.216427 10963.518329 7710.888100 5550.087613 20498.754861 20927.587475 18936.061762 18206.696654 18401.279463 15906.307248 15374.678439 12137.312720 12996.405368 2912.602217 6494.039450 7623.743321 196.368068 20547.256316 18840.727076 16159.088536 17513.781871 16335.339782 16544.267981 11555.557588 10105.418328 7848.488095 8986.919555 3588.582025 935.260311 4251.123767 20477.649892 19860.367530 18688.489965 18128.904607 16124.177842 13490.819818 9594.320307 9508.929788 10227.662653 7569.577296 1887.618175 1506.735330 2257.074728 20473.472202 20599.678733 20495.493764 15881.563246 15770.389533 15577.300736 11324.784887 12800.583222 10390.300756 7026.926876 5775.944137 3475.907431 1484.506796 20328.734875 19915.797071 18704.468189 17438.789086 15834.340600 14192.690362 9095.985108 14414.045833 9896.265991 7165.656177 4629.806108 7571.220585 1733.191873 20101.687117 19127.333055 19350.853199 18465.618410 15156.006298 13080.518803 14209.742388 11739.847653 7910.553125 9388.870728 5243.486924 8895.533811 1675.609627 20059.368220 18868.700050 17903.032446 19305.086951 15562.636171 14976.599401 12398.931021 11771.442150 10169.958061 10913.581589 4797.858644 3143.128694 5161.781971 20247.616141 19753.816675 18403.473813 18832.285798 16883.586340 15012.721261 14962.767812 14296.777968 11985.341227 10209.748232 4993.517131 6943.727896 5979.619440 20307.236695 19395.685725 19136.411241 20978.559175 14613.558926 15157.481745 15234.926791 12768.598969 8826.500362 6933.610964 8268.843505 2760.261839 11197.398398 20171.116606 19902.927252 18838.449061 17463.212942 16933.497383 14106.951130 15133.652856 14098.430754 11702.943844 9040.885140 7009.138029 3635.213559 2800.989522 20016.978842 19513.495830 20028.986126 21336.440659 20246.006509 16745.810834 16020.390097 14111.887518 10471.944316 6944.326326 6266.704554 6135.020263 -6274.972232 20021.895704 19423.739368 20341.098399 21608.489824 17176.057468 17133.810647 12871.121940 13284.802145 10421.951100 4435.137369 9434.204242 14124.824085 4108.830724 20010.210833 19399.315105 19560.297828 20956.032970 21179.468278 17502.108710 14570.018702 13324.073309 10323.635773 8072.420029 8178.200068 1452.706601 10817.975184 19981.888379 19959.962116 20299.601496 20255.466688 18704.762831 17811.254801 14242.068336 12177.690332 8083.281171 9941.707388 5817.469396 10800.330660 4818.228256 20073.843808 20608.883776 21664.618644 21240.059656 17279.573458 15291.581920 14861.733105 14582.604949 12897.872935 10659.411975 8545.003938 10367.876139 4223.979004 20241.088073 21165.681345 21797.326215 20936.149010 19064.078566 17482.694418 17916.270437 12807.960047 14826.534520 8020.024777 5563.932563 13260.605388 7372.495144 20250.231719 21430.748868 21631.337284 19257.769868 18822.890929 15752.608449 13142.333943 11732.117422 6847.830564 141.219247 3808.295343 13852.526387 4361.286469 19865.776432 19385.528014 18640.988877 20591.935770 19443.609632 17089.483572 16674.251531 15545.910205 15958.690984 11792.213286 3232.838981 8290.343808 1062.620953 19277.778641 18522.017014 17565.268207 20786.461417 18493.431582 14725.792090 15430.951655 12144.401566 15197.975738 10910.559188 2885.498495 15669.635718 4445.920537 18792.706335 18485.444251 18773.733735 19360.382190 18261.109259 16819.990618 15633.419477 13414.799987 11869.183438 8826.821507 2559.531905 8848.738408 5878.657578 18579.705477 17515.270126 17887.072148 20951.525082 20099.532462 19854.909231 16534.357489 15607.600645 15178.485548 11137.843798 9104.267341 344.228971 11490.420653 18932.627576 19600.629240 21320.810082 19456.610471 20360.483379 16584.038029 14771.431420 17918.947604 13781.707394 12054.181861 2807.266684 5820.841828 9057.224312 19417.609128 20463.296884 20520.521979 18837.299947 17733.668466 17572.847610 17506.009822 14353.455976 12135.519874 12986.512670 6694.481944 6228.808928 9607.013602 19491.533249 20398.673618 21245.580292 21572.035863 19238.707867 17795.160677 16342.821183 18754.811127 17055.257621 13740.576183 12114.447720 8120.092307 3686.325197 19253.276121 19576.238259 19796.286639 19546.489441 17772.029308 17671.010710 15866.941995 20955.065071 16520.238133 15827.351152 6766.321137 5645.359700 8492.340962 19501.219797 21876.224555 22581.193121 19468.611070 17225.267506 16212.565903 18168.161774 17632.023344 11570.272985 10688.992765 10589.785900 8252.518046 1274.502283 19331.101755 21084.215090 21473.462510 19693.752411 16032.152581 18558.329464 16989.169113 17036.228463 15094.311322 14033.207351 10836.905434 9783.231942 12374.628108 18032.752675 17834.179120 18590.006623 17064.134038 19049.692771 19404.787421 14763.785654 14486.317674 16650.880575 18949.956568 9189.991594 12213.633847 12065.725713 16577.032114 16429.513452 17504.073648 19450.109675 17464.411581 15903.973894 19469.525919 17283.631676 16537.115617 18268.026088 5757.652999 8840.968216 4613.615449 15434.819259 14679.355379 17152.699901 18605.846706 17871.629960 16995.169149 19106.788789 16867.220288 15541.838156 16020.044572 12397.864379 7767.542116 8643.164996 14270.754559 11883.063852 11410.474320 18385.119497 18170.494961 19286.975733 18346.202485 14847.220625 13942.537870 16456.671581 9820.324328 7031.207183 1555.537711 13586.681293 11471.345479 10273.899665 18129.233148 17297.947316 18836.677062 11328.192287 16838.202840 14243.071854 14284.538295 11955.600691 11189.808498 2543.388666 13511.900498 12804.382533 13982.768070 18838.871010 18292.308687 16799.802236 16274.866111 13904.621229 10413.630580 15602.816718 14274.416799 13207.548118 8835.922980 13777.044710 13938.851826 14349.916529 17375.946720 16433.642616 15592.261238 12777.748026 14540.173713 14188.330300 14129.308036 15157.221465 8372.409076 7201.616820 14287.451941 16919.075569 18883.585893 18350.673941 18617.567663 17967.719585 10466.982038 9506.613031 12587.115786 12869.600755 9268.671892 1546.981718 2711.527299 14401.790355 15783.119281 13998.532315 18675.729680 17775.334957 16465.452298 13748.571695 13632.241228 13464.421002 18848.548109 15152.269732 13100.482905 7094.619634 14209.242114 13796.074955 12274.443720 17519.647335 14072.355679 11906.695735 11745.844394 3454.259723 12974.428670 16025.075652 12405.760743 11264.763129 6023.764779 14058.314219 14464.624657 13015.524701 18647.090556 13390.628024 14710.492792 13410.949647 12898.155148 15828.122510 7770.762271 13623.196688 6337.042119 2926.298535 14145.205966 14868.407712 14139.880516 15120.795713 16407.578681 8540.980191 14611.759466 12215.544742 13712.279395 13064.078339 9849.123473 7224.022797 5056.319498 14333.187955 12933.049525 10525.206391 14059.272559 14384.057185 17733.467826 14658.615746 16335.493533 10177.204635 13029.462919 16688.508204 10584.330920 10222.009751 14417.091005 14078.104086 13164.275735 14949.569183 16705.595166 11906.305713 13207.731779 13736.321209 12645.290613 15320.566258 13569.984829 12391.637173 8361.982162 13761.975306 13063.147782 11558.695237 18153.284657 13369.712997 17978.984418 15318.034066 16909.507517 18563.454086 16542.084553 12541.912798 12455.866740 15240.173069 12434.865223 11930.251879 10436.502902 16728.436647 15646.155055 18911.945628 13447.902717 14743.175603 13602.969874 15056.673062 19622.351881 18651.313360 13029.835275 11682.678506 11845.928175 12371.037359 18398.880206 17834.898893 17022.838701 20076.122294 19977.439700 19178.156365 18584.745236 14498.942680 14193.877020 14106.043450
</DataArray>
<DataArray type="Float64" Name="Velocity" NumberOfComponents="3" format="ascii">