<VTKFile type="PolyData">
<PolyData>
<Piece NumberOfPoints="2177" NumberOfVerts="2177" NumberOfLines="0" NumberOfStrips="0" NumberOfPolys="0">
<PointData>
<DataArray type="Float64" Name="Pressure" format="ascii">
 5400.336371 6426.916395 7904.948122 8966.573091 9158.650191 8746.946602 8065.457589 7293.509138 6512.071165 5748.400453 5009.546564 4296.989294 3613.602809 2966.261322 2366.498506 1828.104622 1363.226030 978.732851 674.511539 443.902172 275.274190 156.159089 87.028587 84.419336 92.104163 -105.702653 -637.180835 -1148.984047 -1162.880454 -819.043644 -457.908667 -218.527508 -92.004734 -34.709601 -11.821247 -3.648492 -1.022635 -0.260634 -0.060447 -0.012763 -0.002454 -0.000430 -0.000068 -0.000010 -0.000001 -0.000000 -0.000000 -0.000000 0.000000 0.000000 0.000000 0.000000 0.000000 0.000000 0.000000 0.000000 7628.448334 9540.421716 12589.596119 14624.794266 14578.054618 13920.679023 13066.503987 12108.461368 11126.416799 10150.524462 9201.332838 8275.907113 7358.627189 6431.181251 5489.430353 4549.052068 3643.117917 2811.476045 2088.318471 1493.911026 1030.105655 673.670232 422.839973 407.848136 622.204763 511.580179 -732.898530 -2078.059791 -1871.191081 -1107.545754 -554.714002 -248.133690 -100.707364 -37.198377 -12.513284 -3.834035 -1.070058 -0.272057 -0.063015 -0.013297 -0.002556 -0.000448 -0.000071 -0.000010 -0.000001 -0.000000 -0.000000 -0.000000 0.000000 0.000000 0.000000 0.000000 0.000000 0.000000 -0.000000 -0.000000 11125.132649 14995.488670 23242.074087 28781.676188 26728.403484 24808.874886 23305.042060 22080.318900 20833.563432 19513.917198 18186.038161 16878.671394 15604.191657 14322.128005 12971.985296 11493.625177 9877.010617 8175.057561 6494.712521 4959.758523 3658.406266 2613.690215 1545.460029 1376.427215 2393.944059 3095.013843 -804.869558 -5030.904417 -3287.163361 -1491.544781 -654.849435 -274.292096 -107.146817 -38.643142 -12.793768 -3.876088 -1.072796 -0.271000 -0.062449 -0.013123 -0.002514 -0.000439 -0.000070 -0.000010 -0.000001 -0.000000 -0.000000 -0.000000 0.000000 0.000000 0.000000 0.000000 -0.000000 -0.000000 -0.000000 0.000000 -0.000000 -0.000000 0.000000 0.000000 -0.000000 0.000000 0.000000 0.000000 0.000000 -0.000000 -0.000000 -0.000000 -0.000000 -0.000000 -0.000000 -0.000000 -0.000000 -0.000000 -0.000000 -0.000000 -0.000000 -0.000000 -0.000000 -0.000000 -0.000000 -0.000000 -0.000000 -0.000000 -0.000000 0.000000 0.000000 0.000000 0.000000 0.000000 0.000000 0.000000 0.000000 0.000000 -0.000000 -0.000000 -0.000000 -0.000000 -0.000000 -0.000000 -0.000000 -0.000000 -0.000000 -0.000000 -0.000000 -0.000000 -0.000000 -0.000000 -0.000000 -0.000000 -0.000000 -0.000000 -0.000000 -0.000000 -0.000000 -0.000000 -0.000000 -0.000000 0.000000 0.000000 0.000000 0.000000 -0.000000 -0.000000 0.000000 -0.000000 -0.000000 -0.000000 -0.000000 -0.000000 -0.000000 -0.000000 -0.000000 -0.000000 -0.000000 -0.000000 -0.000000 -0.000000 -0.000000 -0.000000 -0.000000 -0.000000 -0.000000 -0.000000 -0.000000 -0.000000 -0.000000 -0.000000 -0.000000 -0.000000 -0.000000 -0.000000 -0.000000 -0.000000 -0.000000 -0.000000 -0.000000 -0.000000 -0.000000 -0.000000 -0.000000 -0.000000 -0.000000 -0.000000 -0.000000 -0.000000 -0.000000 -0.000000 -0.000000 -0.000000 -0.000000 -0.000000 -0.000000 -0.000000 -0.000000 -0.000000 -0.000000 -0.000000 -0.000000 -0.000000 -0.000000 -0.000000 -0.000000 -0.000000 -0.000000 -0.000000 -0.000000 -0.000000 -0.000000 -0.000000 -0.000000 -0.000000 -0.000000 -0.000000 -0.000000 -0.000000 -0.000000 -0.000000 -0.000000 -0.000000 -0.000000 -0.000000 -0.000000 -0.000000 -0.000000 -0.000000 -0.000000 -0.000000 -0.000000 -0.000000 -0.000000 -0.000000 -0.000000 -0.000000 -0.000000 -0.000000 -0.000000 -0.000000 -0.000000 -0.000000 -0.000000 -0.000000 -0.000000 -0.000000 -0.000000 -0.000000 -0.000000 -0.000000 -0.000000 -0.000000 -0.000000 -0.000000 -0.000000 -0.000000 -0.000000 -0.000000 -0.000000 -0.000000 -0.000000 -0.000000 -0.000000 -0.000000 -0.000000 -0.000000 -0.000000 -0.000000 -0.000000 -0.000000 -0.000000 -0.000000 -0.000000 -0.000000 -0.000000 -0.000000 -0.000000 -0.000000 -0.000000 -0.000000 -0.000000 -0.000000 -0.000000 -0.000000 -0.000000 -0.000000 -0.000000 -0.000000 -0.000000 -0.000000 -0.000000 -0.000000 -0.000000 -0.000000 -0.000000 -0.000000 -0.000000 -0.000000 -0.000000 -0.000000 -0.000000 -0.000000 -0.000000 -0.000000 -0.000000 -0.000000 -0.000000 -0.000000 -0.000000 -0.000000 -0.000000 -0.000000 -0.000000 -0.000000 -0.000000 -0.000000 -0.000000 -0.000000 -0.000000 -0.000000 -0.000000 -0.000000 -0.000000 -0.000000 -0.000000 -0.000000 -0.000000 -0.000000 -0.000000 -0.000000 -0.000000 -0.000000 -0.000000 -0.000000 -0.000000 -0.000000 -0.000000 -0.000000 -0.000000 -0.000000 -0.000000 -0.000000 -0.000000 -0.000000 -0.000000 -0.000000 -0.000000 -0.000000 -0.000000 -0.000000 -0.000000 -0.000000 -0.000000 -0.000000 -0.000000 -0.000000 -0.000000 -0.000000 -0.000000 -0.000000 -0.000000 -0.000000 -0.000000 -0.000000 -0.000000 -0.000000 -0.000000 -0.000000 -0.000000 -0.000000 -0.000000 -0.000000 -0.000000 0.000000 0.000000 0.000000 0.000000 -0.000000 0.000000 0.000000 -0.000000 12975.770409 14845.813875 15726.749669 14922.890781 12733.060529 9343.166442 7640.964473 6381.886606 5570.821087 3440.050812 2394.707533 -133.861160 1104.739556 1527.913822 -1633.595876 -1955.649840 -1335.766628 -719.580614 -327.565108 -129.767779 -45.472278 -14.235317 -4.006429 -1.017782 -0.233981 -0.048761 -0.009222 -0.001584 -0.000247 -0.000035 -0.000005 -0.000001 -0.000000 -0.000000 -0.000000 0.000000 0.000000 -0.000000 0.000000 -0.000000 0.000000 0.000000 -0.000000 0.000000 -0.000000 -0.000000 -0.000000 -0.000000 -0.000000 -0.000000 -0.000000 -0.000000 -0.000000 0.000000 0.000000 -0.000000 11026.087590 12387.775856 13335.201956 14255.119219 13215.868889 7796.852203 5104.250682 4885.130866 5253.704161 3455.867094 1370.253712 1049.836388 785.181846 -1044.373046 -2250.461025 -2013.361328 -1323.729186 -709.764190 -324.218101 -129.121049 -45.486201 -14.308751 -4.044394 -1.031294 -0.237865 -0.049711 -0.009424 -0.001622 -0.000254 -0.000036 -0.000005 -0.000001 -0.000000 -0.000000 -0.000000 -0.000000 -0.000000 -0.000000 0.000000 -0.000000 -0.000000 -0.000000 -0.000000 0.000000 -0.000000 -0.000000 -0.000000 -0.000000 -0.000000 -0.000000 -0.000000 -0.000000 -0.000000 0.000000 0.000000 -0.000000 8951.556911 10050.564451 11003.822994 11188.282288 10324.662630 7713.525444 5750.103986 4350.520395 2908.004103 1197.939531 -318.725969 -1031.090475 -1772.793240 -2551.245891 -2615.156294 -2056.339805 -1302.048995 -690.580659 -314.475822 -125.134369 -44.065813 -13.856169 -3.914131 -0.997315 -0.229827 -0.047987 -0.009089 -0.001563 -0.000244 -0.000035 -0.000004 -0.000001 -0.000000 -0.000000 -0.000000 -0.000000 -0.000000 -0.000000 -0.000000 -0.000000 -0.000000 -0.000000 0.000000 0.000000 0.000000 -0.000000 -0.000000 -0.000000 -0.000000 -0.000000 -0.000000 -0.000000 -0.000000 0.000000 -0.000000 0.000000 13008.003717 18024.260123 29871.246479 38729.660308 36468.197228 33099.210756 30734.136852 29475.680882 28058.459794 26613.037359 25109.091326 23605.504244 22156.417737 20773.528037 19393.034165 17836.221333 15966.508339 13756.742112 11331.493712 8920.451129 6717.641995 4958.196199 2877.271913 2260.188302 2269.679494 639.859127 -5109.110255 -8629.320544 16911.553684 24811.372163 40405.966837 48711.673765 51865.224745 49969.891005 44100.759824 42224.044155 41272.902910 39407.144734 38091.342963 36548.429821 34780.850895 32998.919001 31220.234849 29594.765777 27924.033136 26005.918862 23610.646848 20673.437583 17322.798396 13869.771129 10561.400223 7866.881475 5304.192990 3360.923961 -992.919527 5190.401848 20489.044913 31506.327082 49634.687544 55391.704745 57466.467879 55057.863030 48493.910133 47453.382706 45664.954200 42509.582702 41137.571142 38952.937705 36904.829896 34637.229080 32184.618784 29755.198286 27266.762337 24786.230478 22213.037266 19463.446178 16510.924366 13520.441128 10552.074651 7917.357748 5605.232853 4500.635504 2385.867700 1348.773271 22189.097596 32546.349996 49374.117453 53811.373509 54824.559023 50861.803647 46290.225129 46683.108497 43316.747711 40564.063654 39076.670227 36434.127559 34475.598055 32263.917502 30023.426078 27840.956759 25558.455646 23290.987283 20963.973132 18515.651202 15889.445393 13182.948168 10497.723838 8035.254201 5691.084736 3327.497135 2353.749455 727.135304 22693.329590 32087.646059 48023.393245 53494.608251 52948.550527 48277.001731 45908.819795 44844.474821 41289.321220 39876.839742 38138.373875 35539.406616 33650.543754 31309.288998 29028.234328 26827.455697 24571.997849 22405.634088 20238.380590 17988.437640 15583.081713 13039.673190 10454.141884 8004.507621 6042.549623 3975.212821 1964.260941 976.293776 22782.179619 31854.138600 47539.145186 52923.870566 52215.711437 48744.296435 45587.007339 43560.563671 41061.633364 39328.059655 37058.803640 34577.118427 32621.280202 30227.199950 27915.995562 25632.941342 23314.526568 21151.020151 19077.211756 17000.511412 14827.632579 12522.310612 10165.635326 7785.096046 5662.917989 3932.834860 2275.764772 976.172214 22776.392874 31666.798476 46894.130012 51862.484797 50856.947898 47241.318102 43868.375450 42801.296486 40291.276863 37874.809058 35656.118958 33149.762277 31059.797549 28682.029557 26394.870922 24130.682652 21858.800226 19772.196017 17825.133444 15924.741334 13961.740817 11860.440974 9692.063256 7557.465963 5518.288239 3650.372671 1973.456830 887.482630 22737.986394 31335.239427 45935.554527 50718.297001 49963.466127 46374.115142 43095.728501 41818.902630 38863.685650 36516.979568 34348.882082 31658.145743 29477.491709 27072.953376 24737.138540 22453.875741 20209.157805 18195.740891 16378.114629 14656.789922 12907.107890 11034.509113 9047.393659 7066.193054 5234.965297 3570.889027 1983.262608 865.369705 22673.505941 30888.303336 44640.648862 49260.393661 48650.533229 45018.962653 41639.525242 40230.499844 37357.884185 34988.476786 32697.660219 30048.266882 27969.923925 25602.883165 23232.900132 20899.905653 18620.032430 16618.137379 14883.709356 13309.922974 11746.797024 10087.985080 8324.277735 6520.315221 4803.044156 3252.148927 1786.394357 778.507351 22586.362644 30374.573547 43176.636910 47546.849488 47001.523981 43406.606319 40121.140652 38699.166694 35793.039037 33373.527267 31105.461317 28362.304998 26038.676577 23487.500589 21069.286818 18818.669472 16682.951872 14824.824137 13229.338927 11814.732676 10441.758760 8989.943721 7444.374716 5866.096925 4351.288290 2965.460952 1634.191217 707.105480 22478.507281 29802.345377 41606.346328 45751.195102 45298.794022 41733.296873 38472.291323 36941.172862 34106.066756 31651.082006 29136.746049 26360.903161 24406.204804 22254.564628 19908.928524 17454.353703 15081.672998 13130.817240 11568.541390 10247.620964 9019.671893 7758.903390 6426.523116 5065.419192 3759.830299 2567.298381 1412.585036 607.342408 22352.181646 29182.962751 39951.600575 43881.622810 43498.094263 39918.403262 36712.578108 35197.271255 32325.263008 29611.146130 27483.655074 25293.939764 22817.353228 19540.863358 16677.986919 14480.550803 12521.408036 10827.426627 9468.626623 8353.114487 7338.148581 6312.652035 5238.019679 4139.223981 3079.629709 2108.570017 1160.742239 499.188781 22211.328096 28532.684038 38248.036513 41983.888685 41669.223183 38059.488392 34981.506628 33424.141842 30333.637564 28007.651327 25962.862068 22082.145360 19256.525114 18442.267657 17132.540982 14291.510723 11396.915539 9242.176893 7749.989214 6640.571179 5727.122530 4868.152498 4009.122627 3154.984980 2343.585542 1609.131731 888.891532 384.807438 22061.470556 27873.041603 36537.718000 40098.030497 39862.660986 36217.933954 33271.127202 31527.904701 28524.815002 26410.684148 22627.974839 20765.231907 20124.550035 13992.084320 8974.506527 6976.879612 6356.841286 5329.005370 4477.520862 3801.680977 3244.703133 2745.929562 2263.204462 1788.099410 1336.513617 926.382280 494.398516 226.490481 21908.691494 27226.346575 34857.572803 38240.106003 38082.076118 34411.924718 31566.834300 29649.899767 26927.838513 24038.352415 20685.605117 20460.684123 11490.400711 23637.547619 23492.080236 12883.168666 7496.674782 4375.104120 2815.902466 2071.581324 1656.667746 1374.453099 1136.478697 909.795158 691.409736 488.944202 280.206890 234.589775 21758.916660 26614.265308 33255.400169 36452.225426 36368.726629 32679.080075 29902.980868 27873.399045 25231.178820 21503.923777 20015.538227 13635.544171 23482.948613 21617.387120 26054.099842 31773.029783 34774.337066 34755.603447 31048.135675 28319.931207 26213.628885 23477.309758 19528.171518 18713.947543 9168.045154 18338.044469 21488.248449 25557.426990 30442.530152 33242.261957 33274.703221 29552.117969 26853.210320 24703.065283 21785.495234 17955.520375 16466.612604 7819.471385 11372.194115 21374.328835 25129.759164 29282.843877 31882.995590 31952.743323 28221.101564 25534.646955 23378.728585 20284.713379 16728.367397 14092.199430 7463.287593 7195.034872 21277.059661 24771.131865 28298.399832 30709.286986 30803.710879 27070.451568 24389.705149 22237.876393 19057.377993 15663.441577 12449.188174 6949.072846 5013.734605 21196.570939 24477.468196 27481.858358 29720.556818 29830.667318 26099.180082 23431.215870 21275.410613 18090.713127 14779.852316 11421.090661 6445.807579 3942.868563 21131.941787 24242.132875 26818.008811 28905.217593 29026.463189 25295.827443 22647.973007 20491.831201 17331.355766 14090.870714 10725.960248 6067.572043 3416.201783 21081.531387 24057.310263 26287.871469 28245.107229 28375.388497 24644.948170 22016.923851 19869.775492 16743.263126 13562.477884 10242.965854 5793.176630 3129.536567 21043.306216 23914.966654 25871.588472 27719.663783 27857.111590 24127.367956 21516.014130 19380.793834 16291.504049 13161.876486 9897.468909 5593.625869 2957.886688 21015.111859 23807.452602 25550.063175 27308.310473 27450.924336 23721.994918 21124.422096 19000.638196 15944.640967 12858.470963 9646.650967 5448.630097 2847.895783 20994.875104 23727.853632 25305.906569 26991.651629 27137.624123 23409.124453 20822.252100 18708.711492 15680.036145 12628.501884 9461.305366 5341.074286 2772.843245 20980.736464 23670.145811 25123.861003 26752.188372 26899.947268 23171.517630 20592.356365 18487.227220 15480.153828 12455.583234 9324.145349 5260.937004 2719.854499 20971.119441 23629.223037 24990.810630 26574.585574 26722.818104 22994.206902 20420.360568 18321.696841 15331.017005 12326.927402 9223.188798 5201.490538 2681.898098 20964.749848 23600.865228 24895.643182 26445.620791 26593.374827 22864.407672 20294.085127 18200.226501 15221.635155 12232.714057 9149.766511 5157.873499 2654.699429 20960.641070 23581.677875 24829.114186 26354.073475 26500.782654 22771.376281 20203.296510 18112.903174 15143.019814 12165.095078 9097.327496 5126.449536 2635.428124 20958.059044 23569.008933 24783.708722 26290.624115 26436.049656 22706.198298 20139.498386 18051.540050 15087.783921 12117.653695 9060.675922 5104.308828 2622.018476 20956.477810 23560.848836 24753.478560 26247.729399 26391.871375 22661.617337 20095.741481 18009.457667 15049.916333 12085.183134 9035.669359 5089.093391 2612.894434 20955.533780 23555.722353 24733.853702 26219.460264 26362.464833 22631.874893 20066.477737 17981.321515 15024.614143 12063.529128 9019.040423 5078.911722 2606.839815 20954.984094 23552.580908 24721.433765 26201.304234 26343.383771 22612.531371 20047.405662 17962.992887 15008.146909 12049.467362 9008.270987 5072.282318 2602.926468 20954.671780 23550.702873 24713.771009 26189.941015 26331.317301 22600.270764 20035.295812 17951.362832 14997.710590 12040.577343 9001.480313 5068.083210 2600.464216 20954.498548 23549.607227 24709.161191 26183.009761 26323.880714 22592.697296 20027.804589 17944.174489 14991.269454 12035.105036 8997.311145 5065.495417 2598.956169 20954.404694 23548.983214 24706.456279 26178.888063 26319.413251 22588.137395 20023.288894 17939.845695 14987.397044 12031.824236 8994.818087 5063.943163 2598.056849 20954.355000 23548.636105 24704.907566 26176.497690 26316.796392 22585.460519 20020.635490 17937.304976 14985.128315 12029.907650 8993.365444 5063.036403 2597.534413 20954.329272 23548.447438 24704.041914 26175.145039 26315.301138 22583.927691 20019.115000 17935.850846 14983.832362 12028.816070 8992.540225 5062.520231 2597.238593 20954.316240 23548.347183 24703.569311 26174.397790 26314.467308 22583.071124 20018.264861 17935.038870 14983.110174 12028.209579 8992.082894 5062.233705 2597.075221 20954.309779 23548.295072 24703.317157 26173.994568 26314.013260 22582.603748 20017.800810 17934.596253 14982.717319 12027.880641 8991.835481 5062.078497 2596.987159 20954.306641 23548.268564 24703.185605 26173.781913 26313.771696 22582.354604 20017.553370 17934.360572 14982.508576 12027.706378 8991.704735 5061.996396 2596.940798 20954.305148 23548.255361 24703.118458 26173.672237 26313.646057 22582.224776 20017.424409 17934.237914 14982.400169 12027.616142 8991.637198 5061.953957 2596.916943 20954.304452 23548.248917 24703.084907 26173.616890 26313.582139 22582.158605 20017.358674 17934.175481 14982.345107 12027.570442 8991.603076 5061.932504 2596.904938 20954.304133 23548.245835 24703.068488 26173.589545 26313.550313 22582.125598 20017.325884 17934.144383 14982.317738 12027.547790 8991.586203 5061.921892 2596.899025 20954.303990 23548.244390 24703.060613 26173.576310 26313.534794 22582.109476 20017.309869 17934.129216 14982.304417 12027.536796 8991.578032 5061.916753 2596.896174 20954.303927 23548.243724 24703.056910 26173.570033 26313.527380 22582.101760 20017.302205 17934.121968 14982.298064 12027.531567 8991.574155 5061.914314 2596.894826 20954.303900 23548.243424 24703.055202 26173.567112 26313.523908 22582.098141 20017.298610 17934.118573 14982.295095 12027.529129 8991.572352 5061.913179 2596.894201 20954.303888 23548.243290 24703.054429 26173.565780 26313.522312 22582.096476 20017.296956 17934.117013 14982.293733 12027.528014 8991.571529 5061.912662 2596.893918 20954.303884 23548.243232 24703.054085 26173.565183 26313.521594 22582.095724 20017.296211 17934.116311 14982.293121 12027.527514 8991.571160 5061.912430 2596.893791 20954.303882 23548.243207 24703.053936 26173.564922 26313.521277 22582.095393 20017.295881 17934.116001 14982.292852 12027.527294 8991.570999 5061.912329 2596.893736 20954.303881 23548.243197 24703.053873 26173.564812 26313.521143 22582.095252 20017.295742 17934.115870 14982.292737 12027.527202 8991.570931 5061.912286 2596.893712 20954.303881 23548.243193 24703.053851 26173.564772 26313.521094 22582.095200 20017.295690 17934.115821 14982.292695 12027.527167 8991.570905 5061.912270 2596.893704 20954.303881 23548.243194 24703.053851 26173.564772 26313.521093 22582.095199 20017.295688 17934.115819 14982.292693 12027.527165 8991.570903 5061.912269 2596.893703 20954.303881 23548.243197 24703.053873 26173.564810 26313.521139 22582.095245 20017.295733 17934.115860 14982.292727 12027.527192 8991.570923 5061.912280 2596.893709 20954.303882 23548.243207 24703.053932 26173.564912 26313.521260 22582.095370 20017.295854 17934.115970 14982.292821 12027.527266 8991.570976 5061.912313 2596.893727 20954.303884 23548.243231 24703.054069 26173.565146 26313.521535 22582.095652 20017.296127 17934.116222 14982.293034 12027.527436 8991.571097 5061.912388 2596.893766 20954.303889 23548.243284 24703.054371 26173.565660 26313.522136 22582.096266 20017.296722 17934.116768 14982.293497 12027.527804 8991.571362 5061.912550 2596.893853 20954.303900 23548.243403 24703.055025 26173.566759 26313.523409 22582.097565 20017.297977 17934.117921 14982.294476 12027.528586 8991.571923 5061.912895 2596.894037 20954.303927 23548.243660 24703.056406 26173.569057 26313.526045 22582.100245 20017.300565 17934.120300 14982.296498 12027.530202 8991.573087 5061.913610 2596.894420 20954.303986 23548.244205 24703.059254 26173.573743 26313.531365 22582.105637 20017.305766 17934.125083 14982.300568 12027.533461 8991.575437 5061.915052 2596.895194 20954.304115 23548.245333 24703.064987 26173.583056 26313.541823 22582.116204 20017.315942 17934.134444 14982.308543 12027.539864 8991.580061 5061.917887 2596.896722 20954.304392 23548.247613 24703.076224 26173.601072 26313.561813 22582.136331 20017.335293 17934.152253 14982.323737 12027.552092 8991.588911 5061.923307 2596.899652 20954.304970 23548.252106 24703.097646 26173.634918 26313.598882 22582.173518 20017.370979 17934.185115 14982.351813 12027.574753 8991.605344 5061.933362 2596.905106 20954.306150 23548.260721 24703.137280 26173.696539 26313.665408 22582.239995 20017.434636 17934.243770 14982.402007 12027.615390 8991.634886 5061.951414 2596.914936 20954.308498 23548.276768 24703.208264 26173.804939 26313.780579 22582.354597 20017.544107 17934.344706 14982.488539 12027.685697 8991.686135 5061.982679 2596.932031 20954.313045 23548.305736 24703.330951 26173.988520 26313.972118 22582.544318 20017.724799 17934.511445 14982.631775 12027.802552 8991.771587 5062.034702 2596.960607 20954.321605 23548.356278 24703.534737 26174.286341 26314.276385 22582.844163 20018.009338 17934.774267 14982.858084 12027.988078 8991.907766 5062.117391 2597.006266 20954.337232 23548.441197 24703.858213 26174.745936 26314.734243 22583.292746 20018.433038 17935.166107 14983.196441 12028.267118 8992.113540 5062.241897 2597.075442 20954.364833 23548.577937 24704.344884 26175.413465 26315.378464 22583.919520 20019.021254 17935.710988 14983.668627 12028.659561 8992.404696 5062.417172 2597.173579 20954.411853 23548.787537 24705.030000 26176.309943 26316.206829 22584.718109 20019.763420 17936.400166 14984.268796 12029.163946 8992.782141 5062.642587 2597.301127 20954.488797 23549.090276 24705.912236 26177.385727 26317.134623 22585.599930 20020.568421 17937.151011 14984.927947 12029.728468 8993.210731 5062.894810 2597.446293 20954.609079 23549.495405 24706.903269 26178.446341 26317.922627 22586.324895 20021.198713 17937.746132 14985.460881 12030.206957 8993.586699 5063.107788 2597.573793 20954.787291 23549.981834 24707.750492 26179.048606 26318.084581 22586.413727 20021.188325 17937.757347 14985.499208 12030.302074 8993.694925 5063.146798 2597.609983 20955.034459 23550.467040 24707.935821 26178.380108 26316.793323 22585.061031 20019.764137 17936.472311 14984.425452 12029.507371 8993.164114 5062.781831 2597.427083 20955.348502 23550.763936 24706.569169 26175.158807 26312.827001 22581.088779 20015.809645 17932.860012 14981.339591 12027.073555 8991.438215 5061.672044 2596.832931 20955.698094 23550.530972 24702.318882 26167.620053 26304.620224 22573.000696 20007.929769 17925.629539 14975.106104 12022.039371 8987.794159 5059.380290 2595.577016 20955.999130 23549.229797 24693.448540 26153.684749 26290.496833 22559.207006 19994.682704 17913.443955 14964.537821 12013.376555 8981.443996 5055.441544 2593.386771 20956.085509 23546.116017 24678.045090 26131.398747 26269.133355 22538.460190 19975.014971 17895.324513 14948.752241 12000.284787 8971.751651 5049.503753 2590.046137 20955.680347 23540.297300 24654.507065 26099.677916 26240.226934 22510.471251 19948.861837 17871.209433 14927.674351 11982.624119 8958.560716 5041.537557 2585.516712 20954.379391 23530.892657 24622.301420 26059.286309 26205.246488 22476.597814 19917.797667 17842.559652 14902.596341 11961.416735 8942.586172 5032.081488 2580.083623 20951.663474 23517.304114 24582.825867 26013.684780 26167.829226 22440.197109 19885.356002 17812.681902 14876.520847 11939.200266 8925.714289 5022.423051 2574.474013 20946.958415 23499.561646 24540.052180 25969.298133 26133.503228 22406.378313 19856.687110 17786.373338 14853.877614 11919.867988 8910.942278 5014.548321 2569.853148 20939.750530 23478.666612 24500.785380 25935.272866 26109.368053 22381.884230 19838.228790 17769.496760 14840.098733 11908.290749 8902.076150 5010.882756 2567.669348 20929.747344 23456.712777 24473.211015 25920.060948 26099.754830 22371.095165 19834.343951 17766.550760 14839.894796 11908.997026 8902.743585 5013.595042 2569.255033 20917.056954 23436.625610 24464.740216 25929.132222 26105.971217 22376.147996 19846.059124 17777.893548 14853.684019 11922.910534 8914.206851 5023.425360 2575.206081 20902.266092 23421.903718 24482.858309 25969.270359 26136.601165 22407.773788 19880.521042 17807.678278 14883.652976 11951.040993 8936.905017 5040.065837 2585.336614 20886.432535 23414.410681 24519.168203 26014.608999 26152.409746 22429.609217 19911.080109 17842.830971 14925.072008 11990.555522 8967.362599 5059.378638 2596.818873 20870.904893 23416.008483 24579.331216 26089.097117 26208.691262 22496.912615 19967.030702 17884.307759 14961.762441 12024.154244 8995.703026 5076.820215 2606.111442 20856.628078 23424.793719 24646.992218 26156.106421 26265.010795 22578.837264 20037.246686 17940.237460 15008.624567 12061.451244 9025.012002 5093.657932 2615.058492 20844.530006 23435.829842 24685.785311 26160.239622 26205.026457 22524.492651 20012.401694 17980.396919 15075.175946 12099.570368 9025.583333 5073.364257 2598.491792 20833.829385 23455.257682 24799.888807 26350.115047 26535.231306 22887.721370 20231.993629 18016.225063 15008.884382 12045.343056 9009.565391 5057.731420 2564.764053 20822.209781 23461.385880 24791.547580 26239.061750 26223.346442 22559.997176 20054.607554 18050.207783 15104.846837 12079.982174 8994.918269 5021.968920 2528.679598 20807.320871 23480.061480 24955.769072 26594.447009 26839.052899 23139.994168 20361.085778 18200.821611 15147.354969 11897.026664 8720.106270 4828.353142 2368.632000 20781.128821 23480.972031 25040.817695 26787.607861 26932.981336 23157.784067 20575.999863 18037.794325 14744.255085 11930.305550 8929.916801 4947.199720 2363.274915 20721.290095 23617.271211 25563.559201 26994.449517 27303.983684 23277.392690 20539.945445 18776.207287 15577.924012 12059.201102 8561.437141 4602.281549 2101.742564 20511.377563 23737.945942 26287.136385 28536.511785 28329.944418 24797.346464 21322.517941 18506.454005 15121.685464 11372.626116 8795.354164 5188.781914 2133.557015 19906.259722 23376.177997 26833.045496 29119.101036 30231.888511 25357.107518 22749.160228 20042.399381 16652.699833 12867.955806 9133.973853 4629.370457 2196.696080 18260.243550 22623.322512 27293.921636 27552.643956 26341.610275 22753.469640 20953.583897 19451.019102 17090.802058 13419.654707 9690.846224 5770.177452 3286.494471 15106.354993 18132.291089 20122.435901 21061.969037 15042.748463 13852.837816 13208.505651 11853.512784 9641.945629 6991.335186 5744.904649 5349.618331 39.142635 12975.770409 14845.813875 15726.749669 14998.721604 13971.504734 11195.666309 8333.764561 7293.904594 6220.812278 4944.713945 3086.854728 1444.742199 3480.535209
</DataArray>
<DataArray type="Float64" Name="Velocity" NumberOfComponents="3" format="ascii">