<VTKFile type="PolyData">
<PolyData>
<Piece NumberOfPoints="2177" NumberOfVerts="2177" NumberOfLines="0" NumberOfStrips="0" NumberOfPolys="0">
<PointData>
<DataArray type="Float64" Name="Pressure" format="ascii">
 13234.672017 13306.104474 13315.675600 13126.813791 12686.317738 12027.959431 11185.333015 10155.972909 8900.909582 7355.924487 5542.639317 3632.805900 1958.289709 754.704905 -40.116135 -588.539354 -1116.964696 -1915.288006 -3008.417951 -3984.878603 -4601.776127 -4926.303166 -5057.382847 -5067.043224 -5001.822129 -4883.949064 -4722.627394 -4519.454031 -4273.955566 -3995.508590 -3702.546603 -3409.471819 -3124.274703 -2851.268706 -2592.824925 -2350.169102 -2123.762905 -1913.534337 -1719.046993 -1539.633883 -1374.501456 -1222.805405 -1083.700631 -956.369512 -840.033690 -733.955087 -637.432065 -549.798079 -470.436674 -398.848657 -334.871218 -279.194506 -233.961939 -201.695679 -182.493461 -174.262814 13601.217142 13702.167900 13737.684750 13495.789315 12920.625874 12130.636151 11197.857002 10172.955090 9067.780396 7610.258555 5700.481348 3512.688856 1701.755674 689.307603 41.035495 -429.109092 -852.000394 -1322.769071 -2698.892990 -4281.492626 -4841.198074 -5025.651566 -5099.204192 -5084.780292 -5010.344968 -4891.920739 -4736.915536 -4544.289772 -4297.057790 -4006.327859 -3706.621317 -3410.958817 -3124.925921 -2851.665737 -2593.147100 -2350.466734 -2124.047228 -1913.805914 -1719.304376 -1539.875993 -1374.728007 -1223.016736 -1083.897415 -956.552418 -840.202928 -734.109360 -637.565415 -549.889755 -470.418623 -398.506424 -333.565962 -275.669870 -227.205207 -194.762779 -177.152890 -170.179553 14111.220704 14253.327450 14357.892106 13562.528476 12620.493069 11945.369279 10921.786321 9441.997180 8980.026892 7689.230354 5740.705726 2706.274883 485.884031 728.654059 264.642023 -178.009180 -233.845904 -79.921318 -2484.048198 -4978.232894 -5187.510254 -5152.246833 -5149.575757 -5105.809421 -5020.609438 -4902.040818 -4758.041136 -4594.894753 -4352.741641 -4023.002914 -3711.026974 -3412.131958 -3125.106349 -2851.528590 -2592.906062 -2350.194411 -2123.770793 -1913.536793 -1719.047756 -1539.634114 -1374.501509 -1222.805358 -1083.700408 -956.368758 -840.031204 -733.946918 -637.405236 -549.709990 -470.147574 -397.898701 -331.780000 -268.492245 -211.091551 -181.285230 -168.031474 -163.387250 -178.249083 -164.654309 -158.878165 -149.230914 -144.403707 -141.553239 -121.986515 -120.824335 -119.722334 -100.747502 -100.437750 -100.052305 -83.135634 -83.071861 -82.923517 -68.381367 -68.386665 -68.316594 -56.013085 -56.035842 -55.993310 -45.677165 -45.702168 -45.671128 -37.077601 -37.100580 -37.075758 -29.957363 -29.977347 -29.956801 -24.091451 -24.108447 -24.091280 -19.283308 -19.297597 -19.283255 -15.362157 -15.374078 -15.362141 -12.180583 -12.190465 -12.180578 -9.612188 -9.620331 -9.612187 -7.549317 -7.555989 -7.549317 -5.900885 -5.906321 -5.900884 -4.590325 -4.594729 -4.590325 -3.553689 -3.557238 -3.553689 -2.737902 -2.740746 -2.737902 -2.099192 -2.101458 -2.099192 -1.601679 -1.603474 -1.601679 -1.216132 -1.217547 -1.216132 -0.918888 -0.919997 -0.918888 -0.690898 -0.691763 -0.690898 -0.516928 -0.517598 -0.516928 -0.384862 -0.385379 -0.384862 -0.285124 -0.285520 -0.285124 -0.210190 -0.210492 -0.210190 -0.154182 -0.154411 -0.154182 -0.112538 -0.112710 -0.112538 -0.081733 -0.081862 -0.081733 -0.059065 -0.059162 -0.059065 -0.042471 -0.042543 -0.042471 -0.030387 -0.030439 -0.030387 -0.021632 -0.021671 -0.021632 -0.015323 -0.015351 -0.015323 -0.010799 -0.010820 -0.010799 -0.007573 -0.007588 -0.007573 -0.005284 -0.005294 -0.005284 -0.003668 -0.003676 -0.003668 -0.002534 -0.002539 -0.002534 -0.001741 -0.001745 -0.001741 -0.001191 -0.001194 -0.001191 -0.000810 -0.000812 -0.000810 -0.000549 -0.000550 -0.000549 -0.000369 -0.000370 -0.000369 -0.000248 -0.000248 -0.000248 -0.000165 -0.000166 -0.000165 -0.000110 -0.000110 -0.000110 -0.000072 -0.000073 -0.000072 -0.000048 -0.000048 -0.000048 -0.000031 -0.000032 -0.000031 -0.000021 -0.000021 -0.000021 -0.000014 -0.000014 -0.000014 -0.000009 -0.000009 -0.000009 -0.000006 -0.000006 -0.000006 -0.000004 -0.000004 -0.000004 -0.000002 -0.000002 -0.000002 0.000002 0.000002 0.000002 0.000011 0.000011 0.000011 0.000028 0.000028 0.000028 0.000062 0.000062 0.000062 0.000127 0.000128 0.000127 0.000249 0.000251 0.000249 0.000473 0.000476 0.000473 0.000874 0.000878 0.000874 0.001574 0.001582 0.001574 0.002778 0.002790 0.002778 0.004807 0.004827 0.004807 0.008170 0.008203 0.008170 0.013648 0.013700 0.013648 0.022425 0.022504 0.022425 0.036253 0.036372 0.036253 0.057683 0.057859 0.057683 0.090344 0.090601 0.090344 0.139297 0.139664 0.139297 0.211432 0.211946 0.211432 0.315902 0.316606 0.315902 0.464547 0.465492 0.464547 0.672222 0.673461 0.672222 0.956933 0.958514 0.956933 1.339607 1.341570 1.339607 1.843306 1.845663 1.843306 2.491619 2.494341 2.491619 3.305952 3.308943 3.305952 4.301388 4.304461 4.301391 5.480837 5.483676 5.480845 6.827188 6.829323 6.827214 8.293338 8.294114 8.293425 9.790062 9.788645 9.790350 11.171904 11.167366 11.172859 12.221443 12.213130 12.224607 12.632263 12.621040 12.642737 11.990301 11.982718 12.024956 9.750230 9.772382 9.864822 5.192529 5.337232 5.571271 -2.689883 -2.097300 -1.439811 -15.639096 -13.354641 -11.492904 -36.621113 -27.905448 -23.366247 -51.355162 -36.172656 -29.114335 10993.237610 10208.940540 8884.890330 7470.520893 7522.934444 8937.382017 8512.110316 6914.936911 7122.017129 6541.176725 5724.951923 4339.201148 7703.926656 9820.574328 5066.973816 4592.863519 6023.299145 1953.115300 -334.586688 -1468.150178 -2077.905129 -2473.199194 -2782.491586 -3045.960035 -3270.489228 -3453.243971 -3590.018159 -3677.875513 -3715.848653 -3704.961256 -3647.993306 -3549.143607 -3413.655696 -3247.442258 -3056.731845 -2847.756624 -2626.495215 -2398.478696 -2168.660793 -1941.346559 -1720.168700 -1508.098076 -1307.474879 -1120.049217 -947.023279 -789.090963 -646.473381 -518.947876 -405.858704 -306.057596 -217.646283 -135.545781 -70.093193 -43.849754 -32.512474 -27.816893 11097.301459 10442.922342 9057.419852 7584.890235 7797.451575 8071.441527 6993.681629 6350.896338 6603.102634 6666.537047 6174.071888 6054.808211 6433.290488 6199.771462 5121.285095 4320.872409 3206.695564 1201.120939 -502.645377 -1505.158262 -2084.814408 -2474.026580 -2782.212295 -3045.429817 -3269.834712 -3452.500157 -3589.218889 -3677.057477 -3715.047032 -3704.206713 -3647.310454 -3548.550380 -3413.163309 -3247.055628 -3056.450371 -2847.575240 -2626.405576 -2398.470365 -2168.722295 -1941.466219 -1720.335226 -1508.300894 -1307.704298 -1120.296527 -947.281052 -789.354202 -646.743545 -519.246428 -406.272477 -306.897966 -219.964930 -144.587390 -84.921334 -52.041028 -36.275504 -30.005211 11237.807156 10828.863397 9917.276543 8844.470057 8460.721905 8318.467789 7977.239622 7732.812529 7563.285391 7239.473735 6785.264705 6423.053596 6170.582592 5683.102802 4874.925317 3842.698110 2391.587873 701.355166 -670.924354 -1551.883586 -2096.314796 -2476.791210 -2783.123164 -3046.062335 -3270.504864 -3453.246274 -3590.018486 -3677.875554 -3715.848656 -3704.961254 -3647.993304 -3549.143606 -3413.655696 -3247.442258 -3056.731845 -2847.756624 -2626.495215 -2398.478697 -2168.660795 -1941.346566 -1720.168725 -1508.098159 -1307.475157 -1120.050141 -947.026352 -789.101175 -646.507282 -519.060331 -406.231310 -307.293780 -221.688885 -149.970799 -94.739288 -58.962615 -39.603680 -31.706121 14353.707144 14550.639682 14565.592390 12870.729622 11964.052481 11734.436923 10936.011261 8863.715878 8796.195579 7316.543897 5494.872919 2507.965072 135.111998 1777.665461 831.506802 -90.324392 -133.475012 -715.458666 -3970.337184 -5808.422346 -5329.574102 -5188.773578 -5164.370886 -5112.129708 -5023.860731 -4905.293098 -4765.791908 -4621.898618 14835.816940 15210.042804 15313.100331 14140.674860 16036.551660 15841.484202 15596.357983 12969.031681 16432.223423 15893.618821 15429.281626 13390.980346 15182.670211 15842.676877 13457.799005 12087.702799 14630.770269 15379.366238 15287.460683 15142.835887 11312.123782 12129.993389 15563.982550 14832.153629 15344.042518 12177.925258 4178.919869 832.745622 15375.677644 15578.300064 15944.122734 15661.996721 12370.841636 12018.034404 13808.472827 12023.451416 15659.010800 9624.004833 12893.727505 15548.818561 11809.384661 13466.162954 12506.349924 15799.942138 15145.319399 7750.291380 15871.744149 13003.072387 12295.570958 12259.149015 11340.573129 11955.482077 9131.288989 7133.920739 8993.810460 6683.902436 15838.341631 15405.247625 15372.364736 12914.491751 13422.962801 11457.799288 11962.549332 10142.764126 14640.667953 12578.852090 13345.068338 16456.699843 11236.137450 10266.909101 12220.240920 6301.891117 8546.640792 2726.419060 12949.941780 14890.043927 10845.491246 13378.594557 14728.351706 9091.042315 12717.199127 9900.705901 6000.919367 520.307514 16210.853318 15109.441196 13765.650139 13757.808419 12974.381687 13365.630559 15846.193301 16476.851889 18049.897954 16401.500920 14255.699740 6566.214164 8690.596238 8728.674824 11655.429734 11340.460861 11214.993155 14066.712582 11261.045436 13079.681661 9336.100082 13472.875741 8191.840170 6642.284940 3731.012861 5865.538252 7682.154390 2418.157931 16513.184033 15815.579999 15082.639527 15536.966127 17744.479441 10403.012433 15175.085637 15349.298925 15517.610634 10191.348035 5801.554148 10491.643284 7151.895332 6784.124521 8631.275963 9832.449663 7642.764578 6844.552700 6242.316192 5217.215353 9579.743920 5559.719878 13936.339239 7976.093128 11011.920372 6193.823559 3949.922006 1251.466398 16475.203326 16047.546686 15169.186706 18312.772066 13700.469623 8146.032963 14389.900036 8276.553775 13241.985703 13593.727702 13801.999735 14764.616264 8097.647869 5580.675338 8022.263876 6860.229623 12489.740641 6704.840622 11585.417245 10399.442211 9655.221187 4143.825050 4286.388534 8085.873991 6430.163271 7068.982024 6415.989214 1589.491809 16090.582790 16667.967461 16974.777258 11865.086079 16880.147721 15996.780342 14815.678131 6710.151746 13677.165736 5134.745353 6793.995439 9511.937321 10977.813005 12415.486170 15699.168875 10875.215974 4660.377245 11930.015715 9846.072019 3773.492168 5361.382099 10164.620542 5420.554191 11221.853993 8606.133735 6256.568036 7152.738284 3687.734347 15741.792748 16735.699174 18110.603479 15131.220143 12746.587330 15867.868667 12734.412925 15088.228497 15578.787446 14698.071728 14451.307605 13185.899132 10241.473786 8960.346928 7905.714010 13985.784632 8921.437960 9252.039329 3574.963134 3768.206368 7264.552220 6462.766830 6561.908384 8444.813651 8706.851129 6118.659595 6292.741162 2602.807207 15858.780329 16274.393157 17345.025554 16231.984820 15967.679076 15820.865740 15243.983374 13233.775733 12414.395297 11525.460399 9109.521473 5337.327292 11517.135223 11709.534785 5175.783118 7165.466411 6229.209366 7761.027377 5641.310548 13001.763644 5168.792044 2770.427196 3126.099909 8439.470109 2013.612262 6744.292670 5493.110809 7925.345503 16338.304201 16479.836552 16541.447277 15814.826180 15954.677867 16514.619550 10361.011239 16054.334996 4204.502385 16055.643236 7475.678334 12696.286641 6680.506727 4214.841046 10676.752440 9267.914614 6806.687275 9516.711578 7265.540244 7925.890671 7752.927667 2834.716180 5151.002747 6828.547018 2772.447692 5676.117608 6158.906251 5508.474534 16649.040906 16726.547780 16080.481678 15864.120355 12867.058765 15883.507056 14105.996415 14058.859189 9957.651580 9257.423948 5962.543421 10110.469173 11521.711790 15139.266022 9473.236508 11232.439761 12254.094122 3948.758313 3485.892864 2752.928140 9184.882371 12665.333617 2906.490556 8691.153679 3714.936667 4572.273633 4342.834988 6096.959685 16855.169495 17459.564721 16826.024822 15803.390702 18493.054744 11438.171836 12443.162970 13590.222546 8593.035874 12645.865805 12234.557214 12877.821943 10831.690268 2865.516587 9043.784559 1876.590412 6316.778601 5135.159734 5073.589411 13217.460717 8819.312252 8810.050701 7649.511748 8364.519378 3564.327342 1154.343011 4659.205685 4562.400030 17316.488219 17765.046250 16466.856511 18305.899014 16142.202192 17506.205957 18004.197158 14964.339403 10088.927414 15915.676737 10717.359692 5622.424562 2423.423690 3444.834600 2536.063124 5132.216281 5943.078988 2727.374728 3526.150456 2070.730631 3650.443666 3296.193782 3493.102032 9802.602810 2105.028159 2645.620941 5498.015235 5005.750038 17893.439784 17926.737590 16561.205383 17330.020940 18823.784738 17305.724726 17190.158315 17144.143032 16833.623055 13894.754094 7889.272969 5598.252993 4765.497052 807.828037 1286.687271 4015.785869 -737.100810 1348.365500 1269.546773 3578.039726 867.196954 2201.652992 2791.814727 3655.763526 5231.035043 2097.054400 3234.710060 7621.904293 18112.039933 18170.165587 18167.764149 18872.721578 17351.008262 16068.491539 18184.573939 15707.087022 12162.402823 10540.712815 7945.249555 1851.674204 4493.643886 18012.415679 17553.990513 17530.483395 18521.211364 15017.655481 17749.879947 15947.673900 14791.990808 13979.641338 4729.609646 2720.530107 1007.836152 3031.885920 18060.812553 17987.794430 18363.169412 19332.840290 15131.474369 10618.151450 4641.284822 13638.790914 4829.541606 4842.706815 7238.680939 5265.092378 6656.011931 18247.378413 18025.329484 17688.452668 20177.052059 19057.178605 18626.386069 12110.131555 11190.158573 5015.124881 6660.891713 2839.910496 4222.411371 3453.530659 18519.527448 18494.018050 17372.609903 19214.348323 15353.163593 14116.417333 12067.838051 8434.485315 3950.662220 5514.204667 10527.757452 4760.346557 3487.849461 18766.987049 18774.195217 17957.209441 19712.971221 18595.920694 16086.095029 10830.270310 15957.276308 4436.758512 2728.864817 8745.983084 5220.995425 4235.855601 18823.825235 18483.460726 17017.882996 20301.684819 17214.738295 16136.706899 9207.215480 9627.402401 7649.808288 9769.286886 10098.486717 3042.572732 3126.471184 18956.553954 18323.514049 16450.818758 18648.977600 16984.398529 4846.446633 4027.410752 5242.390845 2569.760652 10360.140459 6357.070765 5273.461851 4267.729643 19127.279475 17943.070905 15813.381667 17760.352141 14785.745930 6900.121515 11381.216836 13844.086281 9970.636891 6113.885708 5312.139690 3917.460904 3150.650852 19060.704205 17784.827119 16608.826488 18688.786670 15582.194325 13443.523602 15926.034439 11136.669132 8656.118120 7379.651148 8869.593095 6354.449454 13627.345155 18899.281899 18383.799307 19032.851984 18130.184740 15845.956647 14568.827894 10516.381939 10631.379197 8447.466626 15422.835651 5348.576037 7521.501675 5024.584005 18849.204359 19318.976590 19640.811109 18798.806184 18613.749214 15685.479023 13236.157543 14584.910363 9233.973095 10179.513084 11098.649101 2521.485765 5361.766930 18990.604448 19493.421135 19360.808171 19714.931969 17106.219774 20569.614348 16612.154782 13087.624724 4664.673703 11823.368617 13225.669709 4879.557544 4075.496971 19367.236980 20167.333413 20484.479901 18058.789547 13838.020616 12784.648243 19073.500959 15511.699637 5572.445861 19426.797835 5185.470845 6622.156665 3353.621284 19865.229189 21323.865377 22079.776730 20095.111380 16039.968970 16854.914201 20192.859144 21261.637023 11461.210644 17099.286437 2123.433061 5863.324894 2714.919992 20140.280705 20816.227261 20191.656804 18375.527120 18687.810104 22757.716849 18755.748493 19003.318855 14694.483924 15752.716434 7368.381430 1523.032458 2942.080218 20163.073365 19640.723937 18590.698789 14962.658242 18781.484600 19918.508016 16282.215640 18458.379470 6728.197794 8245.892116 3107.946705 4539.581353 2879.589698 20288.792283 19784.472386 19445.574157 23365.040952 17177.417733 18948.329061 16293.284612 13419.799285 12833.222172 19076.120606 5061.983327 2770.507880 5334.993809 20449.623894 20231.876635 20401.892764 17651.632079 22058.897618 20702.572009 16498.173041 11124.149269 15424.246475 3481.021753 6986.226417 10070.874773 5219.731735 20575.534695 20506.849340 20584.144260 18979.641019 21788.183357 21073.612683 22459.214114 10062.511461 9794.628477 14462.180162 12746.664527 5822.921433 3985.617149 20687.772983 22348.990726 23987.263283 18744.350994 22429.405760 21591.811784 19591.195427 8352.633445 18104.292058 10826.327245 4110.482519 4396.851593 4422.784209 20270.394931 21170.924556 23779.285605 23586.263062 21972.957006 20231.048209 15452.966535 14726.463234 11553.560096 5739.930105 6639.265221 5434.690586 3277.828278 19643.541983 19698.946526 22766.293887 21127.081017 22229.401782 22384.188170 15155.441846 10568.235045 15533.462509 10221.053635 6541.992451 4323.112419 7305.857599 19797.455761 20162.685102 20559.302699 22656.207058 21745.824776 13809.660094 17669.828997 12720.524856 8224.422014 7008.277942 6643.821176 5918.156481 3058.325659 20770.182645 22533.167794 23734.023934 21963.777734 21250.004213 19349.174276 9436.341451 15358.973375 6972.463961 8196.575734 9819.180566 6962.578339 3229.558021 21350.158517 22152.751854 22129.662357 24005.452093 24864.549922 9916.810841 15891.791926 13023.255720 18289.900390 12197.306658 7683.105117 7780.203396 5315.270765 21386.874238 22636.417820 23760.248076 21594.619656 21147.438897 17424.529959 8525.367407 19797.441901 10354.557120 15123.496421 4659.785377 5176.088836 4763.216298 21154.711618 22655.950030 25739.447072 23617.051565 21907.420063 20797.500386 10694.353231 16231.585454 8764.460583 12116.073153 10374.989113 5762.585215 2728.464294 20765.850216 21353.794184 23343.898865 21818.297938 19348.512585 15782.496378 19399.241771 17419.575838 13823.003797 10151.889834 4859.436252 4745.073756 3443.380556 20758.867229 21974.745164 25701.823890 22115.947719 21801.473126 19904.401161 19971.940403 18621.695843 8722.306151 11902.770290 7439.562402 7848.670399 429.042432 21159.823968 23243.532918 27515.730945 25242.689708 21456.890443 10653.047567 15061.103319 19642.458376 20346.899315 11282.256466 10837.311209 6514.973942 2811.964177 21335.983431 21943.994590 22922.054035 19783.014745 16557.537048 13130.743397 16627.680914 20186.394257 9221.925711 7034.284693 8084.977061 8046.425091 2602.492969 21361.427650 22955.575968 24430.660424 24228.977983 19830.905948 18801.627039 13549.896461 15390.936488 11934.867826 5178.783947 6987.054186 7601.251575 3744.582249 21186.636444 21952.183331 22899.364671 23871.385338 17698.353126 19701.252737 17358.977191 15952.575022 13322.497772 12431.447396 11971.181751 3450.829269 4433.973293 20917.340952 21203.651591 21010.969425 19998.449839 20609.928542 17523.372459 19894.794725 16210.933860 9780.020687 12404.520984 12502.189332 3158.836966 5397.640763 20997.372143 22628.912736 24117.920378 23034.669783 21704.471889 19824.605209 19776.756997 14889.089427 9975.549486 6967.062751 8814.155116 6202.694807 5345.190719 21149.192921 22459.482015 23148.864325 21513.614389 21116.088185 17973.336137 18870.568320 19699.368574 12513.649382 6733.081650 10372.057568 4361.170620 981.957795 20953.493127 21914.383143 22916.684033 21599.626938 19562.035926 19062.503438 20601.952820 8221.527307 6123.132088 9196.708638 2852.086255 7103.434255 6871.887147 20482.431319 21500.472615 22635.138670 20912.876724 20846.446635 18878.728848 10098.867854 8114.870838 6801.625757 10350.015438 3975.876439 4574.466734 -1806.059114 20028.035830 20598.909817 21569.111655 19725.599149 19813.767308 20593.424585 15542.839870 7657.054513 14370.150494 3654.119979 4685.489967 3371.551008 2953.505711 20078.076629 20932.611690 21682.222423 22450.164154 21578.409438 17611.042282 17801.204522 17043.486769 12806.824788 10164.311406 7433.589122 7301.925577 3273.053243 20347.877257 21395.199586 21315.866986 20944.663239 19679.704648 16881.025832 15522.134706 12728.755988 13985.766147 11470.457330 11660.149142 5651.171710 4645.244061 20183.704152 19836.602375 18827.950685 20343.854214 21131.293799 22918.028612 17031.784528 15660.722973 14366.098295 4770.304521 5994.932943 6489.192600 5414.800094 19883.513362 19732.150988 19857.513696 21603.102148 19516.711768 20524.555404 14918.074861 11763.215393 9526.376052 12243.752416 3866.980509 1774.705390 1539.813727 19672.485705 19884.974738 19469.703295 20091.160184 22443.762265 16543.293843 10695.864240 13577.246920 11024.796160 8721.018366 2385.541461 1605.148914 3637.149932 19452.360347 19807.331063 20354.021985 19116.167989 21032.002566 19200.045340 13038.592834 13603.346051 11559.729559 8741.421768 1698.698095 5119.966457 3266.884967 19387.795777 20438.645066 23079.736092 18460.958466 20293.753015 15723.325511 10541.756746 14456.158424 10684.238277 9151.039887 6066.889370 5302.925650 1876.389907 19178.014290 19433.757736 19210.866657 18736.755099 18846.218726 14966.844551 15122.529343 13738.098473 8215.246503 9722.716038 4337.332070 5857.659434 4393.563240 18850.298789 18877.052248 19178.518471 17386.581959 18292.117934 19332.932356 13220.004944 12499.960354 9866.452883 9309.947398 5091.151181 2717.024532 2923.040286 18392.463797 18235.469958 19104.704546 20075.076726 19206.340199 16618.481787 15979.267410 14123.139702 11844.895909 7861.365298 3574.524250 6191.465160 6469.786134 18081.204590 17961.236148 19817.245232 17530.098873 16722.449189 16553.490664 16527.087854 12344.542105 10191.476976 7267.345288 7907.664410 1823.422351 4351.522353 18335.646998 19119.578028 20342.263776 17252.249890 16729.239127 16207.419384 15922.973753 14229.396895 11417.618965 10036.203266 6598.332819 1915.036669 3787.211399 18925.320331 19837.717351 20783.971829 18804.050867 15917.132090 16106.285994 16019.311849 13922.516059 12125.508845 5952.715896 6952.149324 6778.975834 1491.908100 19110.249158 18309.096628 16355.508042 17215.036386 17378.275767 18039.539063 11394.428954 14086.777529 9381.371155 4498.265670 9766.776112 10549.950003 7220.204940 18928.562859 18588.630381 18234.927012 17916.430078 16543.703497 15708.860830 13185.042891 13231.530641 8640.512225 7681.138914 8218.799619 4216.430523 7162.256857 18626.634334 19146.843148 20775.489640 15552.560463 15479.549106 17141.928329 13076.050919 10621.232779 7856.000365 8932.665809 5597.317937 9568.389124 -484.936823 18401.320193 19301.183432 20583.798967 15908.312579 15619.512116 15672.225548 13527.109547 13727.684492 11682.514471 6757.396895 6303.485943 5509.863272 2226.736032 18266.394869 18383.668345 18186.385141 18596.190417 17848.702067 15232.181165 14348.319191 12224.846289 7838.084145 7167.690881 5375.610222 9367.367879 5674.917919 18270.946824 18875.094994 18764.793643 17647.150003 16590.918658 15380.415139 11838.756771 8103.361197 6643.104669 1569.033935 3056.840415 10918.558227 -3000.309425 18364.441209 19426.362686 18756.050791 14473.247441 16936.459838 15345.113606 13947.418290 14445.680587 11644.131811 7974.844860 2247.001858 6783.229180 2780.290794 18085.850694 16635.442442 12517.091657 16930.888322 16477.426361 13517.499282 12760.417245 10377.775391 10394.974007 6292.471482 1624.486139 8740.870678 458.626871 17521.794900 14375.521526 9457.753066 17180.523679 18359.250290 15777.099142 12450.002077 11223.722340 10370.542837 8036.480757 5114.648687 7256.488663 206.647385 16848.234590 14572.958572 11811.190895 17773.737208 16149.338541 15593.357284 12740.621244 11033.660981 11508.006006 7234.801647 4146.316342 3595.680417 7585.525468 16036.298646 14975.760352 14333.619397 17182.664696 15370.016944 15848.822043 11134.596895 10058.122978 8675.386622 9537.818842 3092.057290 5292.091350 7334.658115 15248.610202 15438.692311 16417.253822 17189.717258 14665.420658 14568.597341 16449.493695 9849.184063 8102.220820 10409.935765 6266.829458 4922.615407 9032.543432 14713.160666 14502.130886 14978.572708 15163.999288 16154.093047 15784.426978 12578.371868 12663.912974 9691.041279 8071.634379 8562.367988 7455.595719 54.355401 14621.125129 14787.935779 15467.358121 17227.098575 15503.343055 11672.271795 12402.037691 12209.305579 8796.333717 9777.153020 6184.715145 6563.360686 7625.677425 14697.892919 15131.252257 15986.398068 16536.688255 16041.628205 14016.601765 14236.883518 16099.427176 6332.871094 6781.643334 9603.709859 3699.762968 2909.919305 14539.545154 13856.174337 13014.111627 14969.901523 11933.490265 15819.028284 13240.422292 10395.624299 9433.668022 10953.228481 6670.431493 6894.025612 9733.963871 14508.685340 13600.596544 13415.274784 12953.962300 15113.473631 13068.943316 9021.240593 11046.594386 9125.744207 12217.669585 6936.640234 10224.907606 5390.182933 14829.077285 14337.964583 13553.039696 16886.627317 13071.521262 8830.648663 12357.232803 16171.515415 12085.716547 10674.392783 3494.777118 6682.599232 -3034.694933 14933.665188 14586.164222 12264.137057 17847.990766 17598.340440 12730.229897 13046.500507 10919.742337 11646.055365 12647.828661 9592.727604 7739.193233 6698.049396 14603.469840 14504.313937 12778.189024 15128.737904 11632.428677 13990.438139 13679.715275 10108.504403 10973.663836 11222.220106 6205.997334 7323.028810 4017.643055 14138.981586 13911.649360 12719.698022 12744.936276 11906.040005 11532.135541 10682.070350 12285.231752 9809.878938 11626.471703 9773.758633 6264.081250 5842.890069 13744.310403 13487.842839 12814.576922 14473.875886 11050.091156 10755.453759 10705.398363 9642.200000 8062.657634 8275.086471 11859.749396 9051.113887 6920.684872 13377.758503 12570.709955 11967.667899 14145.976980 9757.696054 13744.353850 11403.256929 12676.019514 8969.124941 10469.237882 8703.161653 8070.416046 3553.741348 13155.193685 11635.112982 9653.867632 12572.762306 9909.428008 10889.658989 10739.088084 7188.046047 9032.647434 9304.088425 7739.991290 3764.272886 1194.888643 13234.056788 12924.423793 12492.825028 14168.221432 10259.882737 12935.788413 9904.758436 10827.270406 9564.333161 14040.548576 10734.418530 5565.217145 6875.870817 13380.599330 13686.217331 14753.264920 9360.056704 12172.602871 7850.960814 9306.291202 7145.460571 9262.666355 10536.887572 8042.343970 8443.047853 9792.082009 13284.226184 12665.339153 11890.806700 15539.875251 11646.123101 12157.265222 11169.789135 8766.239752 6239.465315 9285.061864 9213.822664 10311.588743 1627.428410 13056.245817 12079.895061 10968.612812 13660.092856 11830.976226 9608.070930 10744.197283 8405.148813 10427.203483 8351.833665 10056.361278 7975.102596 7446.393383 12812.701317 12254.859873 10465.385190 10825.806228 10785.502045 12082.873423 10862.187577 12299.122226 8749.733862 10347.118937 11531.587378 8562.727597 7749.887813 12400.341031 12609.640363 11650.116652 11445.953210 10783.932477 9733.195982 10255.880323 6934.716612 12450.679664 12822.613626 10594.000191 10155.792171 3483.293784 11690.215943 11443.579705 10764.572898 13162.098718 13632.231528 10088.591498 11730.591574 14174.711131 11617.607868 10821.931436 9325.052855 7475.385659 11862.258136 11125.369672 10493.775322 9830.657868 10824.353696 13129.740292 11521.922000 11579.797185 13792.330284 10534.571095 11603.727356 17726.609836 12164.532370 10946.912949 10993.237610 10208.940540 8884.890330 14057.518068 13734.343896 14755.415624 13399.523752 14934.293950 13731.329612 14053.333571 12666.478037 12339.846655 8987.591307
</DataArray>
<DataArray type="Float64" Name="Velocity" NumberOfComponents="3" format="ascii">