<VTKFile type="PolyData">
<PolyData>
<Piece NumberOfPoints="2177" NumberOfVerts="2177" NumberOfLines="0" NumberOfStrips="0" NumberOfPolys="0">
<PointData>
<DataArray type="Float64" Name="Pressure" format="ascii">
 13135.408859 13184.348668 13232.894803 13188.058213 12977.044166 12551.388133 11884.568357 11008.311100 9987.169557 8795.669536 7394.276277 5782.653618 3880.373637 1351.771779 -1740.146280 -4314.196607 -5485.297045 -5438.064095 -4949.348815 -4853.712857 -5419.100066 -5894.693619 -5783.239713 -5311.052360 -4773.261750 -4301.794486 -3930.226158 -3642.118058 -3403.022323 -3186.472685 -2979.418107 -2773.937300 -2565.710116 -2354.367220 -2142.269505 -1932.974147 -1730.105747 -1536.735815 -1355.143124 -1186.802781 -1032.487431 -892.406476 -766.343074 -653.771427 -553.950229 -465.994648 -388.931776 -321.745831 -263.422918 -213.017752 -169.802211 -133.581415 -105.047066 -85.139150 -73.451052 -68.459345 13271.736555 13378.998659 13439.692023 13233.674658 12893.059994 12489.896703 11836.620942 10848.218764 9740.140464 8422.920603 6813.250738 5195.849359 3934.041933 2088.956381 -1819.506887 -5388.111183 -6540.109683 -5934.189429 -4552.240114 -3731.243278 -5317.475329 -6461.950773 -6202.509176 -5525.373347 -4876.545976 -4355.017506 -3965.265403 -3674.952873 -3427.197079 -3196.640154 -2982.793356 -2774.896537 -2565.956767 -2354.450403 -2142.354776 -1933.102736 -1730.278931 -1536.943034 -1355.371787 -1187.041654 -1032.727579 -892.641242 -766.567697 -653.982578 -554.145477 -466.171631 -389.086211 -321.865539 -263.468925 -212.866723 -169.084627 -131.579608 -101.224318 -81.356557 -70.681668 -66.433437 13512.453495 13784.402653 14006.752412 13001.539069 11862.447739 11727.458869 11962.336877 10352.584173 9234.285423 7829.954090 5973.871896 3727.171166 4632.462805 5760.915604 -372.408158 -6606.839861 -7830.106745 -6459.485676 -3345.895578 -1514.466293 -5824.696601 -7750.527335 -6770.331686 -5783.150485 -4995.600134 -4415.995318 -4009.872181 -3735.525070 -3481.400674 -3211.383423 -2986.504211 -2775.976012 -2566.293241 -2354.533893 -2142.317213 -1932.987862 -1730.109717 -1536.736974 -1355.143465 -1186.802880 -1032.487450 -892.406447 -766.342951 -653.771010 -553.948848 -465.990078 -388.916660 -321.695859 -263.257816 -212.471614 -168.014311 -127.335559 -91.909511 -73.941322 -65.972024 -63.078207 -72.641575 -64.553704 -61.024448 -57.152814 -54.318712 -52.585160 -43.591400 -42.909635 -42.253897 -33.759827 -33.579346 -33.352046 -26.129321 -26.091624 -26.005791 -20.138111 -20.139512 -20.100662 -15.432213 -15.442880 -15.420865 -11.751805 -11.763209 -11.748366 -8.890792 -8.900725 -8.889750 -6.681670 -6.689773 -6.681354 -4.987811 -4.994240 -4.987715 -3.698254 -3.703279 -3.698225 -2.723524 -2.727409 -2.723515 -1.992057 -1.995035 -1.992054 -1.447100 -1.449363 -1.447099 -1.044030 -1.045736 -1.044030 -0.748062 -0.749339 -0.748062 -0.532312 -0.533260 -0.532312 -0.376178 -0.376876 -0.376178 -0.264007 -0.264517 -0.264007 -0.184004 -0.184374 -0.184004 -0.127358 -0.127624 -0.127358 -0.087541 -0.087731 -0.087541 -0.059756 -0.059891 -0.059756 -0.040508 -0.040602 -0.040508 -0.027269 -0.027335 -0.027269 -0.018230 -0.018276 -0.018230 -0.012103 -0.012135 -0.012103 -0.007980 -0.008001 -0.007980 -0.005225 -0.005239 -0.005225 -0.003397 -0.003407 -0.003397 -0.002194 -0.002200 -0.002194 -0.001407 -0.001411 -0.001407 -0.000896 -0.000899 -0.000896 -0.000567 -0.000568 -0.000567 -0.000356 -0.000357 -0.000356 -0.000222 -0.000223 -0.000222 -0.000138 -0.000138 -0.000138 -0.000085 -0.000085 -0.000085 -0.000052 -0.000052 -0.000052 -0.000031 -0.000031 -0.000031 -0.000019 -0.000019 -0.000019 -0.000011 -0.000011 -0.000011 -0.000007 -0.000007 -0.000007 -0.000004 -0.000004 -0.000004 -0.000002 -0.000002 -0.000002 -0.000001 -0.000001 -0.000001 -0.000001 -0.000001 -0.000001 -0.000000 -0.000000 -0.000000 -0.000000 -0.000000 -0.000000 -0.000000 -0.000000 -0.000000 -0.000000 -0.000000 -0.000000 -0.000000 -0.000000 -0.000000 -0.000000 -0.000000 -0.000000 -0.000000 -0.000000 -0.000000 -0.000000 -0.000000 -0.000000 -0.000000 -0.000000 -0.000000 -0.000000 -0.000000 -0.000000 -0.000000 -0.000000 -0.000000 -0.000000 -0.000000 -0.000000 -0.000000 -0.000000 -0.000000 -0.000000 -0.000000 -0.000000 -0.000000 -0.000000 -0.000000 -0.000000 -0.000000 -0.000000 -0.000000 -0.000000 -0.000000 -0.000000 -0.000000 -0.000000 -0.000001 -0.000001 -0.000001 -0.000001 -0.000001 -0.000001 -0.000002 -0.000002 -0.000002 -0.000004 -0.000004 -0.000004 -0.000007 -0.000007 -0.000007 -0.000012 -0.000012 -0.000012 -0.000019 -0.000019 -0.000019 -0.000031 -0.000031 -0.000031 -0.000051 -0.000051 -0.000051 -0.000083 -0.000083 -0.000083 -0.000133 -0.000133 -0.000133 -0.000212 -0.000213 -0.000212 -0.000336 -0.000337 -0.000336 -0.000528 -0.000530 -0.000528 -0.000823 -0.000825 -0.000823 -0.001269 -0.001272 -0.001269 -0.001927 -0.001932 -0.001927 -0.002868 -0.002873 -0.002868 -0.004128 -0.004133 -0.004128 -0.005610 -0.005610 -0.005611 -0.006802 -0.006782 -0.006803 -0.006114 -0.006041 -0.006120 0.000599 0.000800 0.000577 0.023172 0.023650 0.023091 0.083375 0.084401 0.083083 0.226674 0.228641 0.225639 0.542963 0.546143 0.539363 1.200573 1.203860 1.188273 2.497577 2.493783 2.456295 4.932512 4.892402 4.796339 9.295624 9.115494 8.853815 16.795077 16.124040 15.385141 29.397808 26.974944 24.940431 49.854607 41.263408 36.462762 63.980663 49.448275 42.103833 17444.102071 17206.243993 15603.960254 14946.307275 16170.078004 19390.303865 20590.202755 20077.365392 18929.610702 19718.121570 18516.805754 16596.337960 14698.892521 16077.845213 16415.478362 15143.467716 12132.309540 11484.882134 10157.692145 11090.312931 5068.674753 8163.145446 14615.204845 -4877.108198 -10161.432522 -1365.961359 6283.966510 9768.929296 847.071770 -11788.984282 -7421.886086 -4690.072754 -3002.292202 -690.844233 6612.391997 -372.894506 -6931.727373 -3921.335724 -2567.176055 -1145.092542 2410.433541 1794.477939 -2688.031368 -1137.310527 -635.763586 -284.338039 -69.421030 68.213457 148.797506 179.514855 169.500989 128.877894 80.171537 57.009363 45.694928 40.689507 17296.512854 17115.163258 15122.703757 13038.687527 13602.370462 14522.558588 17225.164783 18270.376450 17238.930050 18346.611230 18001.220326 16466.038614 15222.678556 15693.037378 15677.130482 15005.686053 13291.021493 11927.086497 10364.041378 8858.603275 6880.537241 6229.999094 6429.762888 2742.039057 -610.927973 -476.082641 1852.802484 3583.210070 2007.625762 -2124.800665 -3614.648504 -3431.906816 -2642.091438 -1318.171604 309.543981 337.012564 -1315.461957 -2069.150964 -1755.430594 -991.936956 29.872374 526.678344 13.721228 -354.323522 -300.060857 -150.778330 -15.363773 90.152078 157.453163 183.201447 172.608522 137.166833 94.046016 65.165260 49.501929 42.813911 17094.698225 17415.954015 17225.374351 16973.096774 17477.166470 17489.974213 18003.319658 18147.820514 17835.676624 17782.124336 17474.761590 16601.673973 15653.546456 15208.287713 14938.540164 14277.969558 13189.530044 11958.162564 10508.593563 8805.949788 7087.755798 5898.364875 5142.539296 3735.715254 1844.141846 1016.781863 1412.461443 1906.376200 1348.789508 -360.155314 -1859.817641 -2480.438327 -2325.738339 -1596.942190 -601.252306 -74.083741 -414.590255 -944.810313 -1101.718551 -809.793982 -251.249487 200.537406 230.244915 60.664047 -41.862036 -30.536095 37.340927 113.024741 167.482186 188.081959 176.348668 143.157873 103.822836 72.275105 52.935574 44.464546 13673.598286 14163.138173 14672.876930 13396.884633 12317.260888 11399.595332 11644.124688 9575.665380 9076.326115 7693.048403 5471.935899 1821.912840 4461.434476 5349.853573 -3964.672999 -8008.631853 -8280.043465 -6624.832782 -3031.125795 -1322.093516 -6559.024655 -8384.322211 -6965.481837 -5854.543142 -5026.105195 -4430.820600 -4022.591347 -3764.806930 14055.703405 14555.352101 13678.652770 13581.956424 15327.015147 15597.331783 14437.108786 9992.930007 13897.719407 14495.385782 13553.539817 10981.536983 13482.794459 16654.076502 15174.487322 9450.982351 13028.099159 17368.159852 14411.877768 20553.621929 19071.641188 11955.640308 14128.752307 14000.093138 13547.444522 14620.020877 7653.736351 -2020.792754 14476.075802 13580.317564 11405.017447 14597.427611 12031.356320 10921.631542 13489.263025 9897.396562 14944.290253 9411.034994 12761.835599 15161.742037 9294.554866 12515.164645 11233.954756 13172.356420 10626.258824 12978.502253 11414.068343 10235.682734 15801.509944 17344.719173 13349.258990 15114.052072 11345.901619 7957.868292 10063.847668 7765.548211 14853.325514 14041.262108 12955.873380 11278.411701 13709.406711 10216.908594 10328.944018 7020.645038 14776.083565 10082.417020 13128.084924 13272.704778 12155.325170 8501.609544 12055.230459 3949.272173 9824.499186 3605.599000 14277.268501 12351.677669 7096.139270 12901.343546 12713.678496 10552.236225 10750.266879 10410.757664 7941.756479 1811.358093 15167.157707 15757.221388 15552.605144 16626.909556 11775.584509 14175.565531 13828.819894 14917.626876 15670.056960 16647.853598 9101.826800 7855.904695 9974.101247 3629.484283 13685.608780 7067.018679 10422.299798 12724.506874 8817.918879 10028.147430 7856.732031 12188.160736 8172.618963 5870.813980 2872.722566 7731.383696 4482.123549 971.577280 15542.709344 15811.278106 16616.274560 15766.437578 15855.535378 13150.206163 14429.104937 15332.240453 12960.380333 9795.554753 7612.883675 8184.923125 4940.872994 5455.846426 11783.009679 10878.112564 6435.236494 2182.049026 5683.354908 4994.633627 7330.027967 6064.835472 8639.963749 7174.661442 9284.588276 6612.283448 4275.483432 333.378975 15954.528194 16087.724527 16145.904435 14818.999607 11345.928831 10940.154870 12562.776183 9504.872014 11603.800967 12570.384525 10388.652797 12445.767190 10918.593418 7520.217393 7211.325774 8729.854057 11311.430798 7682.804179 11266.385064 7383.282102 7819.054091 3069.922141 2155.026298 3950.230048 7359.370951 6736.009568 8193.936381 1872.312313 16116.592578 16292.249344 16489.770789 10809.350243 15182.788100 14192.536781 13822.048146 7874.595343 12813.497902 6321.673424 7519.441302 7267.439252 9006.316408 13420.326787 13958.447665 12022.000481 4803.517313 9638.103215 8352.764182 4843.110488 6621.864513 8883.769125 5636.686662 10140.893379 5613.992655 4740.774208 4209.966599 1077.999755 15976.072149 16763.219779 16591.529619 15108.743877 12128.491030 15510.615682 11782.615873 15349.628242 13630.101035 14182.172637 11693.720609 14588.657527 9585.239841 10115.275946 8661.701959 11085.698424 10108.698196 8234.955523 4682.738222 5376.263634 6693.375658 5156.316475 5027.747508 7666.394395 11267.395699 816.669162 5559.221657 1891.190563 15675.893111 16318.196030 15643.156406 13816.179434 15419.942922 15585.074466 13614.058761 13643.839780 11851.292670 11331.643768 9587.414977 8060.120681 9418.264644 11852.873030 4628.843767 5646.909431 5138.580205 7518.830577 6751.434204 9819.388773 4583.708888 3974.345631 2331.588426 6308.071958 2289.006604 1673.015792 3792.225419 4366.414382 15442.980342 15560.847010 15255.377705 15771.343844 12861.136970 13445.679013 11007.652558 14251.485037 6158.573865 13129.520018 7180.083593 10972.463800 3504.702230 3812.336031 9043.463831 8523.220869 7454.421131 7295.487398 5043.840499 7539.875064 8368.396026 2691.763520 4676.766539 4700.965626 3299.078062 5710.004414 6250.426727 3551.343289 15575.234505 15316.228583 14406.349107 15198.438756 12804.782628 14078.284931 12133.701816 12053.044713 8537.847452 10987.082771 3684.749516 11278.530969 6670.422811 10744.185657 7886.838092 8541.187126 10743.891267 1815.573252 1578.910738 3472.495246 5961.221935 9603.990005 3287.024048 9115.306554 5060.790073 4230.413100 1624.903107 -1011.311641 16113.471744 16023.175150 15640.122423 14684.476524 15025.317639 12296.330577 10761.280911 11323.441783 8240.282231 12264.403391 9125.958955 10691.783292 9466.926462 592.257171 10927.932294 1793.129745 6917.148547 1994.442494 2949.880454 11124.368061 6460.122686 5983.567014 8582.884900 4997.533741 2521.233016 1420.198528 2630.995452 2378.468666 16591.419601 16654.603997 16135.778375 15161.715666 14081.675167 14340.618064 13520.848580 13354.576607 8883.293289 12191.627717 8138.501660 4017.014667 1464.154220 1940.359943 1943.610725 4529.535667 4708.548530 1999.692552 4434.712993 1654.803604 3186.679264 1693.753754 3338.731322 6832.202013 2307.992241 4439.269635 4928.916838 5307.856740 16695.602750 16810.422286 15791.143214 14799.256460 14444.597986 14938.543613 13353.553324 13110.654192 12389.142457 11691.537266 5536.014936 4103.290410 2465.134099 2038.060713 842.035772 1942.368361 3190.996778 1986.862981 1565.399870 3165.647903 1658.381617 1739.290056 2053.007075 1812.265162 2467.199204 1959.606335 764.814202 4447.470079 16524.530980 16631.720094 15897.758911 15394.714444 14212.614158 12922.116649 13885.866301 12423.545380 11294.786036 8488.578513 3773.752231 1215.208906 2601.317562 16274.309182 15962.426654 15700.336076 15315.731866 12603.087631 15959.887640 11859.650967 12363.166906 12198.294288 7079.418550 2795.098050 2577.465801 1792.237483 16099.086127 15617.684624 15553.727972 15967.011525 11786.463319 10847.424648 4141.227978 11201.924351 5365.593909 1827.722081 5194.263613 3365.420829 7172.991483 16010.505548 15884.020979 16061.199584 14345.920444 15267.841319 12810.296333 9027.764202 6522.519933 4241.313023 2125.754361 1614.149821 2430.854742 1821.553326 15900.835800 15864.726173 15979.196899 15310.396799 12151.095036 11214.416703 8950.592136 4550.060114 2646.946684 3440.916224 7966.311841 4196.193244 2596.015182 15737.889605 15646.677398 15744.718562 14523.369147 13776.226157 15066.925283 11055.876819 9020.397912 4004.199147 652.058730 5784.628499 2854.734165 3171.714720 15532.743379 15481.696540 15670.467971 15192.901542 13671.189591 12701.241967 6281.899721 6459.530404 4243.737560 5683.450879 5214.954591 748.848362 1781.819710 15319.133405 15274.116349 15904.166356 13943.554552 12688.578260 3355.774678 1740.766646 2968.364375 2633.234598 5915.696561 2096.432781 5309.674290 3197.779181 15157.469955 15035.331835 15322.739134 12262.291969 10826.681026 8124.034679 8374.122443 9226.414905 8340.479281 3635.998910 4702.256534 2680.004147 2464.054509 15107.728574 15338.610168 15987.753006 15750.133722 12843.482678 11251.207057 13477.978595 10067.414563 6151.396905 5002.803260 5161.447779 4561.412291 10268.255661 15028.088089 15450.128249 16219.410577 15340.884201 11070.974698 11672.412692 8270.302937 9238.834114 6112.067988 10392.105080 4622.262490 7297.276701 7335.875398 14839.344861 15075.061964 15873.986147 14145.986627 14463.376792 12273.243819 9314.218944 8520.846995 5996.829754 9141.958395 9831.098378 3948.462640 4962.695506 14654.494726 14952.492442 15461.478506 15280.916101 12370.509805 13087.825792 11091.877652 10980.569154 1804.731723 7864.990874 8871.190149 4249.648581 2716.400763 14559.983156 14605.489670 14657.201546 14488.019794 11417.764639 9544.754428 13592.253006 12451.517893 2549.173926 11124.146254 4759.794428 5342.712769 3530.693075 14651.734154 14849.705660 15344.302704 14867.780805 12783.848110 13629.779428 13115.252483 14303.108188 11479.158507 13159.180578 3233.394570 6313.106482 1308.720293 14813.289231 14883.369925 15299.497008 13502.702879 13176.313408 15352.727078 15331.489392 13834.405387 12215.981577 13004.870508 6216.692987 2412.351818 2931.650913 14975.011404 15003.049669 14816.369530 10892.773678 14137.139717 14859.298275 13645.491497 15141.659208 7658.747050 8674.270099 6555.524495 2955.301628 2646.119102 15167.526691 15384.370421 15505.203891 15556.416807 15002.150404 13459.638102 13244.539669 10252.187919 11701.693740 16123.737913 5949.042251 3099.443073 5116.888579 15299.998894 15989.992603 17145.962722 15189.924494 16326.530782 16809.431755 13016.808602 10822.456946 10083.884162 5580.317785 7022.899613 7918.404534 3394.073033 15158.234083 15291.680930 15870.233966 16233.993020 15059.492057 15061.893074 17923.361114 9224.858456 9181.412786 9996.008357 9497.826368 7500.351950 2236.528427 14966.276084 15110.302445 15949.683139 14659.496330 16188.769891 16828.879036 13779.772480 6602.974501 12509.201234 9564.855392 5010.703482 3134.168305 2298.243469 14940.503625 14887.651010 15393.755607 16657.685374 17278.445856 15019.993060 13536.465184 12372.653560 11067.921966 6921.778160 5248.857788 4237.095242 4996.842921 15100.588065 14706.739454 14486.675617 16101.080292 17505.623223 17059.792757 14308.610832 13496.053118 13116.088978 8707.947889 6166.792445 3463.171071 -1104.353528 15264.544212 14883.782278 14650.629258 17477.646100 16921.797997 15458.266549 15532.875361 11041.085518 7759.307897 7608.370743 5254.389269 4354.673552 3627.615908 15313.786578 15114.766175 15058.559540 17212.047911 16130.763874 16061.864185 8392.503085 11843.326657 8300.240461 8385.952010 7250.096284 5160.074138 1391.994133 15274.396001 15710.828203 16789.712347 17913.355958 17521.935347 9386.711023 14358.106358 12760.586543 14342.625849 11008.538864 6563.055944 5980.781727 1923.665410 15120.108668 15361.722305 15723.968322 16955.531087 17223.591369 15618.173857 10202.162116 17245.906347 10312.225409 15263.802691 2721.178061 5329.096998 3438.742103 15000.573045 15281.805760 15791.276823 19511.514375 16013.246992 15061.733052 10866.515965 11619.021486 9597.645377 8131.320155 8190.835003 6955.101768 1288.915019 14954.246225 14722.844797 14778.472379 18250.410729 17239.927212 14056.255158 17889.078296 15788.554760 11964.112794 7248.788173 4297.822135 3157.111339 1435.444861 15100.249762 15178.420212 15637.988366 18373.221697 19291.662343 16007.799053 18430.178205 18246.909679 8329.840272 11304.785997 5851.469454 5814.748887 4052.166833 15330.675773 15490.239968 15675.365467 18432.520816 19020.902194 10967.360279 14097.222184 16049.146997 16401.790538 10234.312857 10173.191822 6332.234471 5671.266508 15615.047781 15767.146595 16219.361127 16789.448449 14187.674343 13507.121352 15153.715508 14357.319422 6450.602286 5212.168782 8983.447371 8951.953676 -189.825975 15937.276973 15901.021377 15946.822784 20511.119684 18963.895076 19568.234661 11397.483323 14777.716522 11822.601279 6490.155054 4124.066886 7436.393178 4731.997487 16249.472359 16465.758134 16912.611585 19599.233128 15526.292659 16985.644520 14077.085202 12076.635352 14081.158913 11042.082852 11049.136806 4432.597538 687.953453 16610.757219 17156.869579 17570.531821 19685.832772 18630.107441 14080.820346 15952.960650 16280.795506 11463.667614 12510.725640 10210.479549 2583.303152 5796.227303 17114.343053 17992.626306 18856.755561 20261.443673 18404.369244 18142.757164 17400.225206 16050.700757 8147.976408 5574.713079 6179.915860 4543.551283 2988.444501 17491.580725 17829.030757 16559.593613 17271.651915 17853.576814 16193.051909 17043.667923 19501.341941 10864.332899 6415.800124 8507.058487 7049.671667 1286.680259 17648.634813 18285.080880 18138.843076 20211.898250 16611.081954 16498.665004 17565.942909 10533.116250 8758.256309 9351.986194 5495.463018 7009.939586 -286.217796 17698.012669 18595.336176 19220.836476 20414.404324 17859.404011 15647.835511 9491.964855 7213.690010 8728.243469 12636.652733 3521.492878 2570.098886 2194.828475 17782.798306 18628.925697 19337.988973 18368.131204 19970.156719 18034.065041 16597.911147 7411.713308 13158.007984 7733.726186 4202.346354 3593.237822 5641.551103 17840.019947 18681.289693 18733.319544 19809.259791 25417.941837 17464.310855 17639.533908 13355.549376 13601.433305 13261.690972 8473.261356 5980.625079 1655.431849 17825.805415 18204.558732 18186.989345 20806.413025 20825.270553 17367.046963 16618.225130 13053.503829 15052.947302 14809.486590 11736.989175 8501.319688 8159.168679 18085.145196 19035.865035 20806.524391 22755.906358 18648.944738 25512.771480 18004.720217 15407.768837 16838.289470 5490.664780 11108.940091 5306.214170 14929.308601 18427.698879 19366.229015 20515.641346 21196.003207 22859.449961 23157.437913 18005.786956 13925.711983 10040.167469 13788.281795 4944.288804 11329.510811 3508.296245 18542.908601 18783.613313 18870.221633 23554.646387 22116.089402 17220.800249 15214.895072 12806.712073 10948.267212 10767.482406 5283.464162 -608.444637 6397.105592 18524.672155 18325.292793 18184.814892 22298.878996 24599.657350 21078.971416 17847.756029 16751.781760 15995.180379 9695.089664 4586.009318 5983.573664 268.061199 18595.801848 18626.312602 19361.658713 24010.054176 22335.926927 15909.728689 12357.784426 18181.832336 14977.626177 9921.982537 7797.076379 6364.405918 484.120705 18776.649462 18877.031935 19575.351981 24507.943897 21506.177137 19149.302807 18369.250588 15962.401883 12311.460963 12402.513679 7106.452447 15564.404585 4602.561905 19065.406853 19592.581163 20385.704330 26500.317942 21387.432237 22065.291753 17642.436281 15719.058668 13809.313698 11921.983084 6578.813812 2303.507390 4999.873560 19522.805696 20941.900378 22657.301462 24529.176579 24329.332259 22056.529398 20705.158001 18712.886006 15217.911737 14263.851536 8628.594233 8428.838606 8642.783387 20019.634815 22029.429341 23442.973838 24422.412761 22126.524927 20024.583098 20238.283449 16507.406140 12716.922933 9046.207750 9759.421789 5367.224122 10737.289208 20382.889395 22028.976407 23625.727495 24587.761022 23087.545528 20567.359172 21183.024302 18441.670565 14748.902913 12016.958724 11129.054962 5263.374910 10449.529985 20593.071010 21051.037574 20956.441518 23957.816785 22397.320124 21856.597204 19980.099286 17027.690810 12651.234866 9661.809723 6054.189612 2245.805217 6248.417213 20828.192391 21789.401808 23017.262022 23667.779214 21896.869609 21528.092547 16346.706842 15906.813686 13323.764241 7570.922979 11046.112258 494.576021 7042.014530 21097.254989 22274.459997 24182.164157 23944.800530 24808.838402 22400.353456 21013.979966 14917.634874 15213.482678 12224.855474 7676.176715 935.842897 590.738841 21443.488568 21898.408171 21557.192866 23467.233980 23895.518833 22442.765652 18390.232630 14655.150676 8994.719874 11483.412173 5260.580382 11276.856089 392.185571 21673.020480 21354.267974 19096.761844 24363.039999 21756.349527 22556.271455 17992.665267 19655.483842 17380.082947 13125.384150 9666.463731 3241.186189 6025.115160 21781.242307 21948.875185 22149.526279 24919.755983 24065.393641 21411.971083 21439.541351 15942.095956 17969.536283 11259.889457 8758.439071 15241.380649 -551.203362 21995.426936 21637.373397 22040.123735 25377.762039 22993.686262 22319.633673 17632.269432 15025.584025 8664.888984 7455.415800 4323.089252 12328.496915 12719.542968 22451.210124 22370.161686 22497.153802 23475.143588 22125.297520 21341.916167 22286.415925 16235.510426 14455.226830 14982.942680 5111.543242 11335.906041 4109.226790 22860.150979 22547.592415 22609.494721 25922.022063 23550.028115 18328.235353 20353.807117 16579.148343 17670.674660 13164.813367 8126.652091 15962.568744 6451.983926 23145.846840 22709.645497 23191.607849 24414.377769 24127.292818 21414.912841 19381.312787 17665.673050 13217.529928 10786.225351 6069.626771 -1354.802132 11462.022692 23534.435414 23248.440337 23188.567263 25907.012106 23442.619091 22223.407247 21602.621067 18971.500658 17641.777848 14365.608892 10573.836925 3400.749968 13891.810393 24213.162733 24826.813651 24519.868379 22107.162000 26323.496525 22413.759882 17011.430915 19173.173466 14075.022333 13297.943483 2716.254535 2421.039173 21411.310756 25014.320933 27484.795001 28505.357302 26754.032027 24732.946324 23898.877349 21981.833990 19515.900627 14997.091787 17828.067618 7889.239314 4743.638871 13333.340716 25300.521326 26434.850005 27119.711934 26567.948647 25723.310306 23627.195663 21584.582931 22046.879373 16417.619296 14649.703478 11579.148139 7870.177808 11926.295304 25391.861334 26428.959182 28252.339894 25840.414008 24588.606320 23505.246189 20660.785686 18836.687559 15638.262631 14917.217632 3791.491731 7880.372447 11442.673157 25738.000086 27609.311531 28961.360267 25470.777409 25408.797325 23030.417376 23740.527159 20084.987434 13693.362727 12606.853031 15774.228976 6183.458789 -1248.555150 25970.642831 26695.224822 26869.599839 26970.120169 22019.414227 25257.042489 17220.135349 18844.787488 15302.662405 15484.746768 15962.586323 8810.694635 15145.865178 26073.018986 26458.932841 26493.220773 25522.566736 25034.495638 23941.353905 21102.960913 19114.278001 17155.971216 19082.987192 8663.461716 14101.089421 1704.279841 26245.880691 26980.530694 27659.789583 26061.361613 24585.666077 22960.583068 25339.186456 21485.392950 21695.366239 21429.203179 4778.484913 4442.707249 311.328383 26435.576517 27466.563933 28190.625291 23520.869550 24838.116628 22777.867545 21681.755880 18646.668959 17717.160732 17197.886815 14151.739233 8610.790141 14857.426489 26230.164663 27526.213374 28486.584390 21506.699862 19427.501430 25893.366089 19351.651132 20355.094864 18812.786722 17325.441527 9314.194802 8323.806039 19508.468963 25276.311081 25438.795196 26177.762602 25001.042794 25450.836652 25692.495955 18662.598958 19354.022395 16821.312188 19656.348092 14023.964569 10829.347451 18398.686992 24108.415221 24425.784718 25244.686205 23947.459291 24269.815422 23629.036973 22163.517779 22935.025155 20442.982095 17812.041478 18367.506014 14814.308334 18120.135951 23028.717308 23318.263198 24594.305953 22741.777428 23645.620576 22747.760615 19180.932005 25740.848706 20116.286868 14696.303334 18784.052219 17120.017378 -369.204489 22237.897297 23369.287024 24806.714626 18757.368460 25089.508578 22618.406989 24629.166518 19828.400905 22420.320196 18243.384996 15093.022658 21441.724487 -1591.594595 21954.098557 23648.080577 24302.706575 22315.823237 23460.699100 26730.040372 23194.109937 25594.627686 20665.167093 18780.788979 15044.952004 18204.818309 19839.116141 22052.720195 23533.172784 24441.990454 24705.832787 26109.870150 22640.476261 21669.925686 19009.154482 24455.107451 19778.696561 18754.226507 19400.281121 -834.534099 21809.147692 21548.917824 19436.769140 19326.706110 27259.511858 22785.534846 22479.490272 19152.447681 23472.692682 18748.820610 21541.786715 17867.667056 21016.975334 21134.103423 20760.748920 18526.032975 24360.527126 24226.045616 21444.864212 24416.368052 23459.894266 27477.750500 28966.413999 19510.444825 20128.325319 18521.174493 20569.201100 22095.412421 21151.896900 24160.492311 22517.293198 23376.848342 16335.923320 25580.360038 20557.441763 26072.220544 27067.892125 22396.751375 19090.603082 19819.007398 22569.955814 20734.885458 24839.040225 25582.084242 25408.676550 25125.495275 31438.857150 21688.052666 24871.087877 25715.582095 21191.917615 19511.360918 18731.744010 18210.627798 15203.866995 23136.667127 24553.261281 19112.608285 23141.721482 19923.680640 16829.515072 23580.610431 23359.266837 16022.312058 29651.012842 17774.756366 16578.167261 15287.860340 26676.013059 17406.722824 20563.031494 21144.309019 22979.668704 18430.184531 22666.262377 23816.081069 18959.273110 22882.264873 17444.102071 17206.243993 15603.960254 24113.829463 19983.028156 19374.893057 21388.680169 22046.093561 25237.956793 18039.806015 20191.079001 20190.441854 21762.409794
</DataArray>
<DataArray type="Float64" Name="Velocity" NumberOfComponents="3" format="ascii">