<VTKFile type="PolyData">
<PolyData>
<Piece NumberOfPoints="2177" NumberOfVerts="2177" NumberOfLines="0" NumberOfStrips="0" NumberOfPolys="0">
<PointData>
<DataArray type="Float64" Name="Pressure" format="ascii">
 10918.097679 10846.563829 10664.541302 10315.727180 9743.989570 8953.220108 8030.852318 7044.331740 6031.793175 5057.866351 4187.669428 3438.437885 2785.588806 2208.042734 1697.933465 1249.197473 853.835692 504.247791 194.658068 -78.928927 -319.335193 -528.791816 -709.296562 -862.793106 -991.290828 -1097.048260 -1182.925470 -1252.755056 -1310.363648 -1356.926359 -1391.565213 -1414.184081 -1425.729277 -1427.497087 -1420.770142 -1406.691788 -1386.239332 -1360.232776 -1329.356484 -1294.185197 -1255.210497 -1212.865497 -1167.546444 -1119.630460 -1069.489196 -1017.498794 -964.047712 -909.547036 -854.457161 -799.372412 -745.282622 -694.195955 -649.919004 -616.920358 -596.836463 -588.252139 10987.105060 10920.425773 10742.668252 10363.723528 9759.174832 8928.957728 8012.915636 7036.307648 6000.020087 5020.314122 4174.517789 3461.202201 2815.203746 2223.378524 1703.543775 1251.626004 855.443247 505.691328 196.089585 -77.498318 -317.924643 -527.411819 -707.928937 -861.360886 -989.586010 -1094.576360 -1178.766264 -1246.274220 -1304.780837 -1354.328041 -1390.526051 -1413.737795 -1425.489078 -1427.334925 -1420.643963 -1406.586743 -1386.149178 -1360.154196 -1329.287364 -1294.124093 -1255.156433 -1212.817854 -1167.504848 -1119.594591 -1069.458349 -1017.470620 -964.014286 -909.482330 -854.277258 -798.814892 -743.568782 -689.738111 -641.206785 -607.188743 -588.505319 -581.344292 11066.936831 11068.587417 10945.749570 10196.425995 9647.611151 8666.716344 7864.822497 6969.518385 5757.811336 4856.126660 4119.608891 3553.485221 2892.702799 2255.478243 1712.020016 1254.457953 857.082493 507.121355 197.510791 -76.070156 -316.509982 -526.021396 -706.540521 -859.882226 -987.756371 -1091.696008 -1172.900813 -1233.452999 -1292.329568 -1350.993200 -1389.793997 -1413.647763 -1425.567258 -1427.448136 -1420.755357 -1406.687324 -1386.237984 -1360.232369 -1329.356358 -1294.185152 -1255.210457 -1212.865401 -1167.546140 -1119.629476 -1069.485999 -1017.488395 -964.013888 -909.437011 -854.099319 -798.207101 -741.519731 -681.349899 -621.315145 -588.501438 -574.080828 -569.708895 -582.109873 -566.738673 -560.861505 -538.554894 -532.922644 -530.005169 -491.339756 -489.990837 -488.797658 -449.099435 -448.724881 -448.311966 -409.587757 -409.501141 -409.345339 -372.464976 -372.464483 -372.390282 -337.648056 -337.673887 -337.625045 -305.118957 -305.152626 -305.111868 -274.860201 -274.895786 -274.858018 -246.838382 -246.873841 -246.837710 -221.001422 -221.035944 -221.001215 -197.280055 -197.313244 -197.279991 -175.590548 -175.622173 -175.590529 -155.837697 -155.867607 -155.837691 -137.917742 -137.945843 -137.917740 -121.721081 -121.747321 -121.721081 -107.134712 -107.159073 -107.134712 -94.044371 -94.066866 -94.044371 -82.336374 -82.357042 -82.336374 -71.899154 -71.918052 -71.899154 -62.624503 -62.641704 -62.624503 -54.408562 -54.424151 -54.408562 -47.152551 -47.166621 -47.152551 -40.763301 -40.775949 -40.763301 -35.153578 -35.164906 -35.153578 -30.242267 -30.252375 -30.242267 -25.954406 -25.963395 -25.954406 -22.221119 -22.229085 -22.221119 -18.979460 -18.986496 -18.979460 -16.172185 -16.178380 -16.172185 -13.747484 -13.752922 -13.747484 -11.658671 -11.663429 -11.658671 -9.863849 -9.868000 -9.863849 -8.325575 -8.329186 -8.325575 -7.010512 -7.013644 -7.010512 -5.889087 -5.891795 -5.889087 -4.935161 -4.937496 -4.935161 -4.125709 -4.127717 -4.125709 -3.440520 -3.442242 -3.440520 -2.861912 -2.863384 -2.861912 -2.374468 -2.375724 -2.374468 -1.964795 -1.965863 -1.964795 -1.621297 -1.622203 -1.621297 -1.333978 -1.334746 -1.333978 -1.094262 -1.094912 -1.094262 -0.894830 -0.895379 -0.894830 -0.729483 -0.729948 -0.729483 -0.593023 -0.593419 -0.593023 -0.481151 -0.481491 -0.481151 -0.390391 -0.390687 -0.390391 -0.318026 -0.318290 -0.318026 -0.262062 -0.262304 -0.262062 -0.221203 -0.221435 -0.221203 -0.194858 -0.195093 -0.194858 -0.183162 -0.183411 -0.183162 -0.187022 -0.187299 -0.187022 -0.208190 -0.208511 -0.208190 -0.249361 -0.249742 -0.249361 -0.314296 -0.314758 -0.314296 -0.407980 -0.408544 -0.407980 -0.536804 -0.537497 -0.536804 -0.708790 -0.709643 -0.708790 -0.933841 -0.934889 -0.933841 -1.224030 -1.225313 -1.224030 -1.593928 -1.595493 -1.593928 -2.060963 -2.062862 -2.060963 -2.645818 -2.648111 -2.645818 -3.372862 -3.375616 -3.372862 -4.270608 -4.273898 -4.270608 -5.372200 -5.376110 -5.372200 -6.715916 -6.720537 -6.715916 -8.345685 -8.351118 -8.345685 -10.311600 -10.317954 -10.311600 -12.670424 -12.677815 -12.670424 -15.486064 -15.494615 -15.486064 -18.830005 -18.839847 -18.830005 -22.781678 -22.792944 -22.781678 -27.428739 -27.441568 -27.428739 -32.867249 -32.881779 -32.867249 -39.201708 -39.218075 -39.201708 -46.544928 -46.563266 -46.544928 -55.017728 -55.038160 -55.017728 -64.748394 -64.771030 -64.748394 -75.871904 -75.896841 -75.871904 -88.528884 -88.556195 -88.528883 -102.864263 -102.893996 -102.864262 -119.025618 -119.057787 -119.025614 -137.161191 -137.195773 -137.161179 -157.417567 -157.454489 -157.417530 -179.937021 -179.976141 -179.936901 -204.854541 -204.895600 -204.854151 -232.294598 -232.337069 -232.293333 -262.367830 -262.410440 -262.363725 -295.168165 -295.207363 -295.154846 -330.772054 -330.797011 -330.728845 -369.245249 -369.221399 -369.105086 -410.675589 -410.488756 -410.220928 -455.288998 -454.549719 -453.815423 -504.051364 -501.208615 -499.252424 -557.599136 -547.025423 -542.485166 -585.569442 -568.503997 -561.054896 19232.355873 18862.757500 16927.410193 15602.613405 16846.983822 15681.557105 15044.188773 16590.926252 15602.552965 15444.041867 17222.707904 16301.350229 13540.891821 10907.378405 10645.311628 9942.007542 9463.457438 8226.197285 5008.852936 2124.323551 2439.026321 3164.471005 3500.979338 3514.728333 3310.904249 2979.266885 2575.603730 2134.044077 1678.719195 1228.684498 799.008262 400.997981 42.598450 -271.092167 -537.405011 -755.822430 -927.741138 -1056.169773 -1145.323224 -1200.149955 -1225.865407 -1227.560282 -1209.923493 -1177.086214 -1132.568637 -1079.299173 -1019.673987 -955.626691 -888.673117 -819.856852 -749.434351 -674.137424 -606.353435 -577.089767 -564.498502 -559.971625 19187.474092 18881.010238 18125.328757 17632.792966 17817.087239 17575.984383 17231.930894 17651.348315 17072.129477 16211.449136 16526.606620 15499.969432 13394.660315 11693.514182 10744.054823 9920.896710 8422.172496 6551.962699 4828.672336 3639.633690 3337.188047 3504.846597 3629.111301 3559.500964 3325.790990 2984.009266 2577.065761 2134.553432 1679.054482 1229.086229 799.528279 401.625864 43.306037 -270.337336 -536.636168 -755.071514 -927.036120 -1055.532003 -1144.765867 -1199.677985 -1225.476959 -1227.248723 -1209.679621 -1176.900189 -1132.431714 -1079.205997 -1019.628071 -955.657394 -888.891360 -820.647068 -752.072622 -684.705706 -625.560307 -590.708916 -573.658139 -567.251137 19173.676152 19106.924809 18971.962218 18915.306675 18937.520800 18787.227425 18569.289330 18317.193310 17862.959357 17279.443468 16630.715530 15551.520621 14057.559361 12591.497079 11344.784405 10061.841224 8511.024412 6841.121462 5380.159612 4378.989234 3924.262162 3812.483708 3757.907388 3608.677723 3343.914806 2990.821835 2579.747725 2135.585434 1679.312104 1228.918179 799.101943 401.036123 42.614275 -271.085441 -537.402076 -755.821118 -927.740544 -1056.169503 -1145.323106 -1200.149913 -1225.865422 -1227.560396 -1209.923892 -1177.087522 -1132.572894 -1079.313013 -1019.718983 -955.772988 -889.148652 -821.405241 -754.416884 -691.450854 -638.320350 -601.649420 -581.121933 -572.811560 11107.620471 11346.840304 11460.273720 10027.966698 9443.873495 8369.561229 7855.886742 6899.521910 5442.864774 4747.712472 3907.834566 3679.940313 3082.530256 2268.707310 1714.116356 1254.630233 857.009798 507.059891 197.490324 -76.060234 -316.481708 -525.979757 -706.479909 -859.777361 -987.533063 -1091.133830 -1171.057300 -1226.931926 11205.604933 12205.769595 13157.496685 11619.897815 13677.235424 12293.102429 15518.246186 11018.825236 11689.356574 13113.869090 10899.352762 12281.278743 11684.297423 11609.411572 11895.348179 9657.705966 10712.589495 12835.397725 10719.880834 9587.277228 10852.082880 10243.581365 12630.438710 12584.071341 12307.052732 10121.067251 3387.389929 4575.232053 11308.307453 12346.715721 13165.690518 12128.336959 9492.431949 10685.297356 9736.863375 8634.740960 12231.863830 5811.657378 12845.867032 10412.287194 14762.784263 11698.734006 11979.746505 12915.914636 11207.876565 6840.274485 12689.683323 7317.025609 11611.853895 8796.652944 12794.237626 9250.352187 9309.002120 6114.333430 6819.706321 7943.607502 11357.457664 11144.950625 10109.049394 11026.910070 9422.274863 9567.683519 8874.079294 6077.946039 13401.908837 11221.518653 11367.489240 8793.449825 11291.754093 9662.453618 10517.190005 4879.616120 9355.851866 2939.672712 9551.611629 9545.653899 8872.615613 10684.263186 11308.123821 7312.005436 9770.561388 8630.637477 8581.898456 4602.101853 11499.381379 11325.247476 9981.056066 12165.103293 9193.565334 12267.013552 12719.584931 12543.218324 12225.439752 11668.675614 12366.841658 2944.907409 4218.829866 6895.512469 10287.461837 10333.987854 7777.759837 9371.235994 10036.691690 9625.026056 6194.206966 9789.358139 4340.996290 5402.588033 2585.855839 2235.856347 5103.967011 2931.753027 12010.173349 13007.936982 12473.654918 11937.780282 10821.934435 11530.420939 12501.970477 10587.815313 11156.973031 7407.960236 4007.103515 9953.275635 8301.297363 7132.425251 9821.849573 6304.502531 4842.056672 2369.649330 4696.908003 3544.713409 8221.543401 2863.204761 9399.493841 7157.391309 6045.335978 7922.634785 4816.226159 4392.498831 12496.743645 12715.933500 10874.992076 10614.401190 9594.912164 7044.580918 12533.331881 8542.390113 13104.785024 8838.204955 10614.157244 12688.871629 7627.206895 5442.665316 9751.300660 8072.642363 8373.624178 3697.358748 12240.739760 8766.105564 12127.823752 2594.960799 3288.486689 4804.426736 2600.728463 2873.517556 4163.559567 3748.266039 12284.385978 11908.257618 10654.236770 8966.815976 13007.517356 12450.379552 12018.338982 7077.766581 10124.557884 5928.635647 4931.817647 6492.443772 13576.279897 7500.246913 15083.729098 8849.352956 5252.969150 9152.776886 10252.706853 5207.099126 5946.543933 10146.012414 3790.120070 7673.858829 7883.751496 7177.882666 2070.508350 3622.102169 11775.767196 11520.024308 11991.057264 13516.929272 11361.374638 12187.034074 10787.798895 10738.227774 13475.911074 10917.308487 11237.640799 11034.429591 11603.817373 6491.786170 5224.713899 11865.600743 9371.748780 10788.611988 4019.751064 4592.844662 5719.723775 3280.496553 4507.709604 3187.040670 5978.071182 3168.731552 4390.638363 3894.501243 11843.406227 12308.099374 13439.172119 12204.105445 13373.639200 13111.436545 12333.062140 10454.387559 10186.233149 7348.165924 9800.420834 3328.637994 8542.294912 9521.605840 5821.901305 6754.352402 5974.306036 8035.761319 6286.006497 11070.368381 4965.234611 3555.645983 4241.634996 5616.548246 3860.684190 2858.843929 2360.218245 4960.478431 12339.466908 13340.715000 13704.266180 12619.364662 11048.145752 11532.058905 8992.806596 12059.512580 4662.575062 12939.218866 6263.819762 9475.486036 6454.242110 3971.584740 8789.829424 8347.613330 5467.733712 7758.028165 7125.610724 6819.765679 6008.965650 4013.353837 7824.645361 9342.230711 5015.661764 4916.985600 6631.467243 3250.826306 12709.692462 13880.251301 14575.118078 13120.539210 10816.184689 12606.027236 10500.504532 10744.266848 7940.370595 9650.983069 5612.895529 5742.753650 10400.313597 10906.617518 7688.999419 7499.368157 8321.398512 4516.741127 2320.338834 4712.743577 6482.342940 8442.981922 3456.248902 8173.137761 5135.282551 5475.718923 3851.369373 3933.171330 12685.006222 12970.852742 12162.432688 12322.062755 13401.391261 9003.606600 7802.511741 9483.257667 7495.423874 9729.834754 6111.127599 10290.607287 10692.081146 3552.067128 8073.275092 5019.454352 10603.866318 6540.613503 5468.728546 9778.120165 8679.331270 6546.133754 10332.659957 4547.926524 6071.874346 5006.166067 5731.179971 4641.527858 12636.720372 12001.144666 10257.628008 14011.557504 10418.265671 10944.259650 10550.732478 9773.826612 6778.565986 11755.582953 8190.399209 4022.477838 3850.200565 2342.524379 5397.851989 6449.513307 8132.159032 3097.268185 6920.571101 5506.977736 4226.108431 3777.720265 2531.928025 7685.637727 5061.164753 4740.976223 9021.110430 3598.705899 12727.463425 12322.777183 11066.470939 13505.390502 11629.355912 10491.253379 13215.542261 11642.788803 11168.398042 5947.879382 9979.037850 7507.731796 3823.551016 5289.255984 3588.303306 10999.864568 1852.117529 4954.404592 6381.132972 6820.827471 4306.794762 3587.824004 4745.502215 4749.775312 3944.217092 4333.684555 4202.965425 4012.066837 12660.440138 12771.357963 12038.370023 11033.796561 13013.151036 10242.062562 11380.612593 9815.448860 8591.145816 8856.801864 8303.576531 4207.254585 6232.931392 12586.350722 13319.196913 13798.203708 12507.608670 10924.089714 11091.454849 10381.511664 9144.292283 10719.743058 6143.249796 4673.378842 6093.653660 3445.673242 12658.192549 13115.826360 13254.499185 13761.773688 10385.347388 10638.718170 4554.936114 11454.252197 9926.545367 3273.852449 5810.182966 8715.174615 7750.026444 12756.024386 12498.488064 11725.018922 12999.424964 10971.696452 10362.797469 8221.188025 11000.570411 4363.658852 6488.375996 3764.578773 4492.453170 5810.626249 12803.570625 12497.481129 11493.631454 13510.118338 11172.356363 11519.958459 10366.278999 4197.536427 5836.983852 7551.614701 9939.772535 15803.518129 2145.660957 12726.558112 12058.268808 10780.225120 11061.544914 11343.875907 12978.833958 9931.350805 13029.763774 4457.144153 5554.122535 8447.720384 5959.967208 6188.432557 12553.021420 12160.287460 11717.639342 14098.076903 10559.295267 10894.495635 7223.691562 8098.011222 7265.299482 6146.776201 8964.392231 4175.529950 10041.228660 12378.159202 13631.567250 15331.584608 10819.071158 11860.016462 6058.873824 4859.782518 6969.183012 4298.837725 10243.191890 5186.395241 6975.587909 2212.554001 12264.205904 14001.322214 16364.334787 13396.209269 10681.825067 7534.852627 9293.443259 9609.514261 8559.862546 7931.215421 5168.288308 6011.872703 5799.548194 12301.015907 13322.680469 14624.551715 13968.366185 14489.013191 11833.970483 10632.708544 8217.228422 7563.834295 7169.910796 5921.930310 5783.729743 9970.901893 12333.879376 11894.864168 12162.287856 11129.515674 10410.819314 10267.347559 9754.186093 6338.605053 8468.007857 11978.071925 6549.724957 7645.015972 16167.832388 12297.734475 11093.918678 10921.557506 12820.172482 10840.093940 12978.679170 11365.774071 11399.376946 6619.880213 8948.389018 9701.033881 9857.262986 6435.225587 12521.851236 11986.679347 12187.921055 14221.185220 12857.376828 15829.883343 11903.839942 12130.262290 5763.187202 9676.566054 10963.557990 7939.004930 5057.056093 12994.703922 13017.736607 13062.069561 11481.403218 10903.567253 10026.462970 14353.712477 11140.846883 6259.890123 10703.144997 5019.352158 6040.353972 8143.902953 13323.111400 13482.541222 13281.901158 15074.108994 11975.129201 12200.407918 15448.904803 14792.586323 10591.309912 11748.395193 7467.102576 8373.526471 6536.619460 13647.320418 14523.308887 15084.231523 11940.587273 11709.125465 14715.630470 14430.911407 13361.238802 9082.454721 12297.003033 7066.800454 7415.908979 4023.703611 14021.696028 14970.445159 15286.059153 8103.177627 13872.413378 11902.088675 12419.205302 12991.356197 7557.427170 7281.965210 7212.643606 6499.431755 7712.836113 14194.499431 14859.727543 14133.734383 14553.510951 13638.588834 12890.776473 11823.191726 10713.022452 10138.399302 13692.662641 8127.633965 8514.578146 11451.985475 14024.163125 14975.926063 15280.252852 15011.362012 13472.893568 12336.332750 12103.579382 11740.373891 9962.344375 10274.589673 10128.858297 11924.693062 3510.369683 13608.250643 14491.979244 15410.237915 14871.837416 16559.167456 13439.995595 11778.392827 9394.197393 8488.129235 12525.610801 14186.158177 6911.085671 14547.086111 13312.820210 13694.290115 14253.688717 12398.983992 15107.556325 14294.056788 12006.791035 8798.150956 13078.991530 8879.470663 7658.529201 6269.297078 5918.627546 13261.524078 13648.004506 14008.397792 16047.299972 13139.686471 13814.019785 9285.770200 12645.245424 10262.678462 7742.436139 9016.389227 9735.757170 4144.210764 13244.606329 13751.401883 13940.127016 14503.754376 14998.761042 13467.972076 10019.823579 11157.864714 10307.778238 8529.816245 8933.463233 6613.200054 12275.099594 13216.212620 14121.868396 14695.808949 15402.493165 15484.888972 13884.111737 15272.142138 11492.718960 7761.063596 7861.682192 6770.883845 7372.857938 6494.200966 13241.182343 14097.953952 14567.370659 16895.957221 15839.873146 14106.212357 8564.691784 13049.126511 9435.358864 9908.895422 13285.701825 9982.834024 2574.065273 13422.390040 13898.080757 14840.162583 16135.498692 15895.207334 9568.218022 11324.067160 10430.901996 14218.723302 12129.170573 11515.937791 12868.398786 8969.325310 13730.213337 14453.723379 15803.696619 16861.207442 15495.949307 13399.353239 6751.320223 17716.592666 10751.360726 10847.784180 11496.985550 7046.730795 2313.766208 14010.552566 15078.010645 16240.170937 16184.286045 18405.124120 16088.511238 6305.212175 14859.519994 6050.303802 9991.445708 12684.507423 8623.310048 5972.500896 14232.135105 15140.976657 15949.222315 17407.646423 13309.774172 14388.761184 15991.605293 14542.074861 10651.456401 11711.057485 8533.653622 5189.540987 4305.144532 14566.676530 15434.005740 16098.174378 18148.271737 18352.950195 14683.986436 18317.619873 15785.195644 8965.263860 11638.859611 7462.230492 7080.600605 6570.918948 15085.068680 16121.146769 16892.886548 16223.918422 18384.916896 8673.759964 12251.377975 16642.225062 19191.955319 14546.391344 13205.957224 10295.913849 5942.649992 15634.187129 16179.120199 15803.301520 17409.656563 12916.575783 8970.771196 14077.823517 15869.082554 10131.520471 8353.014004 10274.081515 8280.824054 15661.260357 16073.393765 16503.157118 15760.399482 16157.955137 16831.270603 16912.423764 11273.766622 13959.720803 13798.478512 10121.304637 9159.172820 10345.478682 7743.014260 16334.741187 17386.245167 16979.758768 17221.250611 17419.976192 16957.228566 14459.333534 9969.352602 12847.769719 11534.512281 13781.650252 7308.853216 5434.934226 16414.145813 17288.389591 17477.675571 16731.723168 19210.293190 14828.144247 15734.931217 14670.302800 12537.002248 13623.822452 15232.425470 6373.990011 8240.529409 16416.654868 16278.351372 16256.752272 18550.520337 18891.201830 18437.379061 16175.922573 15629.714702 11150.567884 11618.435704 11147.318724 8234.082798 7671.989945 16487.508047 16463.849499 16089.897489 17631.232100 17487.928708 16951.582086 14257.085090 16808.605977 13380.522298 9680.502789 8412.554084 9355.921136 5323.108773 16592.414838 16958.995354 17077.302488 17723.006726 18958.061375 16208.700401 18815.435111 10058.001734 14452.422459 11677.638081 7715.136343 9805.801399 12203.974303 16905.774812 16794.068172 16135.738794 20061.816368 18869.877400 18477.337750 12444.235411 9373.353321 8052.069735 13196.713287 8772.669656 6643.616008 12179.293869 17464.022219 17313.666865 15792.644106 18198.713632 14606.613533 18583.935389 13568.877164 10265.914893 12678.948999 9159.821288 6406.107256 3624.874355 7140.136044 17721.369783 17787.811077 16658.264712 19626.920664 16790.415357 16705.711153 16533.011435 12734.367196 11115.551230 9113.707352 9892.583776 9424.061157 10722.158438 17561.903937 17362.972247 16353.943450 17776.488931 18262.410616 17841.091850 14287.715590 11770.513371 15114.657756 11868.657543 9227.056155 9759.139467 13998.896537 17504.079699 17254.395009 16365.178948 20283.375960 17591.070945 18758.513797 15018.840442 15709.851023 16995.423615 8777.614894 9877.446782 16274.202783 12062.885790 17713.034047 18178.163196 18757.926929 18880.527105 18512.491745 15258.908984 15514.822937 12677.780652 9370.263956 10520.002597 9332.231099 7750.504038 3825.754567 18063.433860 19224.599417 19999.184017 18048.826996 16303.671146 15323.504520 11643.584370 17437.751260 12784.580776 10944.828994 7047.941029 24897.290955 5373.635698 18549.635440 19449.199204 18919.904423 17681.566210 17903.399591 17547.875418 12163.376068 15194.022778 15664.810284 13355.272090 6579.850085 11621.773998 8712.293672 19138.598142 19466.774304 17475.865607 16753.780129 15270.157221 13080.571179 10711.558110 14019.018310 13110.201326 10358.548923 7636.905287 15722.422194 6642.114989 19593.453552 19375.633065 17646.927658 17836.139919 17040.005989 11046.471821 16578.912175 14392.823877 10959.638105 10263.505668 8809.826838 15312.839052 5035.115372 19643.815091 19558.947701 19028.343640 18963.819353 17557.182959 17261.944366 10803.152724 12828.258719 10833.485294 13830.700584 9937.439084 4952.615115 7910.826280 19508.852495 20033.214401 21499.349096 18793.491957 17202.384337 18660.981293 17276.683906 17416.064178 13792.458038 13059.379294 5676.958479 12373.230322 14896.224810 19556.740224 21061.048708 22533.659688 19243.817454 14014.454730 20207.285890 14748.828510 16492.816946 8475.923898 8707.623601 14441.122762 11507.422439 15532.378660 19513.868474 21421.674238 23620.868581 19020.211926 19355.598354 15908.487641 13361.337834 13763.880832 14806.267367 12558.110273 11008.133671 7771.808246 17118.569683 19118.623270 18833.522819 18418.719077 18178.849052 20396.070464 17716.318863 17406.615513 14528.850977 14761.285508 15484.732477 10124.341511 13103.569419 5031.051370 18901.107041 17783.282604 16597.711687 22030.286516 20481.708499 18949.763115 10035.552166 18296.311788 14088.214294 8533.723998 14317.405104 12857.270647 11746.795641 18910.704620 17876.936728 17644.114468 18805.203114 17211.429830 20730.072803 12080.304518 15602.593675 15958.679526 12967.323482 12028.466587 8031.449723 9380.923953 19171.949978 20551.940732 22993.642091 19125.243302 16447.748113 20656.029917 16009.928645 14453.027441 10409.249578 12545.963931 13608.013513 17530.388216 10875.285038 19559.510844 21163.707880 22173.649654 18462.034977 17778.468959 18070.501650 11117.673592 15725.238310 16678.912106 13664.978427 13385.625450 14180.426120 9612.224001 19981.190520 20650.807584 19944.278321 20318.041007 20585.923638 15132.493690 16738.604191 13963.011107 17408.024574 11951.184379 8502.225527 16319.443102 11753.781536 20216.215178 19227.030106 16801.453467 17990.555820 16873.303313 18005.498704 10208.542514 12815.405475 8938.189690 10475.872218 11219.196058 17162.434950 8630.769986 20355.883860 18194.415796 14693.938160 21254.545454 20732.989306 17167.026765 15149.114191 12567.969203 18020.175350 16991.389856 13224.813794 13604.626249 10832.114959 20686.024574 20014.108665 18720.056380 19877.329729 17344.654941 14298.068807 13806.563727 18004.832762 16252.333469 17146.963458 9576.014670 12538.790499 -1312.026777 20947.447662 20331.069593 18346.444696 17651.541039 16096.903990 16688.803415 17744.561455 15103.515451 14098.417309 17521.929492 11279.631061 13337.652118 2442.204967 21208.870272 20566.840616 17832.606810 17639.783849 19792.779997 19891.732037 13978.496501 18492.358286 17140.208965 11016.487860 12272.517622 10959.211214 12510.058552 21405.382594 21091.641921 18641.755031 19863.732133 16203.340682 14229.905689 16231.357322 17079.055832 12495.236576 16575.711701 14128.598752 14780.551213 12695.649884 21246.844638 20049.555449 17678.665220 17759.844251 16633.229341 14478.062771 16728.372624 18882.769786 17727.540670 18049.473278 16386.390249 14994.355089 15949.707802 20779.015455 18617.989542 15337.473483 15972.420003 19541.154131 17286.247729 15970.334630 16457.076498 17439.158686 17931.813228 17918.894123 12113.433529 11219.376527 20234.558427 18738.932770 17314.437488 18356.098902 15645.784821 19193.022094 17616.859972 17697.959203 16478.649258 16912.454028 16731.349850 15919.722867 13712.123513 19994.722286 20477.355242 21485.153917 19085.889245 18126.957983 14532.571335 18232.332132 18290.825689 16540.502946 15414.367496 15650.985011 13160.139930 14716.209218 20077.713001 22381.520435 25161.551356 18314.074328 17949.521724 16447.063742 16702.434771 16718.636753 14900.127905 16849.089726 15108.209049 8231.729836 13258.326045 19941.875552 20956.832425 20733.224877 16812.970968 17972.456239 18720.786409 15573.731852 15119.743838 14540.947991 15345.763519 12615.001762 16596.370040 8264.500953 19443.160879 18363.875613 16312.783702 19610.938485 16531.219499 17216.183654 16560.079022 16912.415985 16794.896232 15273.504594 9187.553289 12268.164487 8723.793794 19170.456317 16543.446609 13667.640402 17462.926013 15666.913844 15013.846714 18820.807774 16925.041405 17655.818733 17395.807742 16150.003043 16344.373990 15218.068107 19747.422894 19110.777799 20617.601236 18029.139624 16934.597405 16076.920077 16233.381749 16176.203114 14997.772458 9493.339403 15908.133086 16034.325322 10752.645607 20571.779512 19254.228991 17626.453530 16824.979061 17199.701203 18901.732947 12027.653327 14805.312206 13773.583822 13236.459751 15613.665665 15353.523453 12090.057252 21119.319563 19799.949890 16429.043027 18159.275204 15424.506160 15630.241908 16600.712748 13761.621828 15096.608944 16938.438720 15510.717540 14849.590996 15392.462528 20783.473808 20068.366586 16834.301774 19115.916309 19982.137727 17893.975639 15602.937978 16356.463432 14979.320926 16753.452988 11166.396035 14365.446531 10417.528401 19891.418273 19958.593255 18500.044699 15961.792349 16509.970772 16126.862836 16924.127602 12551.768870 14769.180391 12276.088192 14771.464208 6082.324020 17085.812231 19185.696820 21753.039208 23431.628009 16213.154516 14426.606440 17493.888836 17448.635321 15621.690531 16904.325116 15943.407313 14845.855504 11819.601597 13672.703263 18400.696601 21055.851959 23070.425494 16536.825259 14615.736683 16448.614174 18754.841155 7650.932303 17352.879070 15825.591315 17126.167444 12207.724449 6081.274136 17579.246376 20993.893731 25266.857885 18914.221006 15978.012033 18242.685387 15836.371771 15228.520275 14063.896574 7677.739537 16091.655958 15090.646582 7076.229370 17031.088790 18051.471408 20739.435613 17269.769821 16245.499900 15357.005787 15924.924913 15854.735774 13752.537203 15720.328125 15815.412769 15197.800437 14029.257030 17412.081278 15616.240314 13603.974474 18221.111524 14601.613294 15426.715675 16056.986849 14928.189092 16190.028854 16192.718684 22539.460234 14777.322567 17746.765987 18566.483248 17815.850957 15106.371998 13545.604547 14307.534969 16255.466171 15586.748086 17634.222885 16528.080247 16354.760285 13710.099562 16352.525638 11075.984559 19315.977418 19843.165790 16684.137546 19555.145755 20173.222090 20460.201200 15631.338221 15730.293099 16593.703625 13618.455407 14668.130628 16018.603918 18857.097966 19391.120137 19901.321929 17970.693992 17990.490436 17510.203205 18692.651121 18695.615947 17061.342755 17223.258517 13627.576174 17380.826739 15058.632510 19516.796729 19232.355873 18862.757500 16927.410193 16439.138967 17314.309840 18103.195003 20436.488762 17628.470771 20174.783546 17505.989749 16475.612730 18987.094477 14573.981566
</DataArray>
<DataArray type="Float64" Name="Velocity" NumberOfComponents="3" format="ascii">