<VTKFile type="PolyData">
<PolyData>
<Piece NumberOfPoints="2177" NumberOfVerts="2177" NumberOfLines="0" NumberOfStrips="0" NumberOfPolys="0">
<PointData>
<DataArray type="Float64" Name="Pressure" format="ascii">
 13258.271458 13136.561524 12821.881147 12238.113145 11328.719001 10188.533806 8999.150040 7782.963319 6470.470278 5112.678714 3874.147052 2802.613802 1636.776361 172.812640 -1199.762749 -2089.225566 -2558.244229 -2885.500817 -3461.208681 -4426.784723 -5350.870853 -5886.747542 -6007.221907 -5818.567143 -5476.518662 -5089.184227 -4701.054025 -4321.903235 -3948.554007 -3587.210026 -3252.956442 -2952.437556 -2683.134911 -2439.280401 -2215.229780 -2006.706062 -1810.986100 -1626.651003 -1453.198284 -1290.660467 -1139.295104 -999.366092 -871.011178 -754.178669 -648.613209 -553.872297 -469.359756 -394.368476 -328.134125 -269.921191 -219.211851 -176.102107 -141.745890 -117.574851 -103.309626 -97.207188 13423.909138 13301.997422 13080.668473 12725.846487 11820.378857 10443.053516 9174.259438 7943.147259 6443.568450 4805.468740 3453.066720 2648.197427 1809.215945 -124.555606 -1820.183497 -2467.194723 -2578.610759 -2620.102823 -3634.413844 -5646.612071 -6162.941039 -6100.038733 -6105.733424 -5873.214429 -5507.180039 -5111.463530 -4728.866566 -4363.460038 -3985.117505 -3604.255984 -3259.489942 -2954.884405 -2684.161505 -2439.796359 -2215.546477 -2006.939034 -1811.184383 -1626.837825 -1453.384596 -1290.850332 -1139.488531 -999.560868 -871.204091 -754.366269 -648.792075 -554.038599 -469.507099 -394.480624 -328.161572 -269.709755 -218.302192 -173.598914 -136.961331 -112.779028 -99.732810 -94.547094 13602.636184 13345.866325 13196.889966 13713.223229 13374.012319 11145.622644 9859.373004 8822.502395 6674.001586 4490.855030 2778.417045 2646.419033 3053.980536 -779.898881 -3433.193740 -3079.099401 -2612.613883 -2169.924456 -3613.465677 -7377.966607 -7778.483005 -6487.820382 -6235.265380 -5938.557334 -5542.693662 -5138.015325 -4767.930324 -4445.485484 -4068.938032 -3628.163324 -3265.424168 -2956.281949 -2684.313875 -2439.640966 -2215.339714 -2006.739484 -1810.996231 -1626.654065 -1453.199205 -1290.660740 -1139.295172 -999.366069 -871.011025 -754.178143 -648.611466 -553.866544 -469.340783 -394.305925 -327.928012 -269.241206 -216.991161 -168.371603 -125.395433 -103.408101 -93.641658 -90.135128 -101.598806 -91.653046 -87.349429 -81.819833 -78.318044 -76.200311 -64.056974 -63.214100 -62.406828 -50.829178 -50.605610 -50.324681 -40.306374 -40.260058 -40.153114 -31.840944 -31.843588 -31.794349 -25.026569 -25.041061 -25.012407 -19.561803 -19.577412 -19.557499 -15.202662 -15.216524 -15.201354 -11.746025 -11.757607 -11.745628 -9.021900 -9.031334 -9.021780 -6.888482 -6.896063 -6.888445 -5.228213 -5.234248 -5.228202 -3.944344 -3.949110 -3.944341 -2.957854 -2.961591 -2.957853 -2.204696 -2.207606 -2.204695 -1.633357 -1.635607 -1.633357 -1.202722 -1.204449 -1.202722 -0.880223 -0.881540 -0.880223 -0.640261 -0.641258 -0.640261 -0.462862 -0.463612 -0.462862 -0.332560 -0.333120 -0.332560 -0.237469 -0.237884 -0.237469 -0.168523 -0.168829 -0.168523 -0.118856 -0.119080 -0.118856 -0.083309 -0.083472 -0.083309 -0.058032 -0.058149 -0.058032 -0.040174 -0.040258 -0.040174 -0.027639 -0.027699 -0.027639 -0.018897 -0.018940 -0.018897 -0.012840 -0.012870 -0.012840 -0.008671 -0.008691 -0.008671 -0.005819 -0.005833 -0.005819 -0.003881 -0.003890 -0.003881 -0.002572 -0.002579 -0.002572 -0.001694 -0.001699 -0.001694 -0.001109 -0.001112 -0.001109 -0.000721 -0.000723 -0.000721 -0.000466 -0.000468 -0.000466 -0.000300 -0.000301 -0.000300 -0.000191 -0.000192 -0.000191 -0.000121 -0.000122 -0.000121 -0.000077 -0.000077 -0.000077 -0.000048 -0.000048 -0.000048 -0.000030 -0.000030 -0.000030 -0.000019 -0.000019 -0.000019 -0.000011 -0.000011 -0.000011 -0.000007 -0.000007 -0.000007 -0.000004 -0.000004 -0.000004 -0.000003 -0.000003 -0.000003 -0.000002 -0.000002 -0.000002 -0.000001 -0.000001 -0.000001 -0.000001 -0.000001 -0.000001 -0.000000 -0.000000 -0.000000 -0.000000 -0.000000 -0.000000 -0.000000 -0.000000 -0.000000 -0.000000 -0.000000 -0.000000 -0.000000 -0.000000 -0.000000 -0.000000 -0.000000 -0.000000 -0.000000 -0.000000 -0.000000 -0.000000 -0.000000 -0.000000 -0.000001 -0.000001 -0.000001 -0.000001 -0.000001 -0.000001 -0.000002 -0.000002 -0.000002 -0.000003 -0.000003 -0.000003 -0.000004 -0.000004 -0.000004 -0.000007 -0.000007 -0.000007 -0.000011 -0.000011 -0.000011 -0.000018 -0.000018 -0.000018 -0.000028 -0.000028 -0.000028 -0.000044 -0.000044 -0.000044 -0.000069 -0.000069 -0.000069 -0.000105 -0.000105 -0.000105 -0.000155 -0.000156 -0.000155 -0.000223 -0.000223 -0.000223 -0.000302 -0.000302 -0.000302 -0.000368 -0.000367 -0.000368 -0.000355 -0.000351 -0.000355 -0.000097 -0.000088 -0.000097 0.000771 0.000790 0.000771 0.003011 0.003052 0.003011 0.008145 0.008229 0.008145 0.019081 0.019246 0.019081 0.041171 0.041479 0.041171 0.083907 0.084463 0.083907 0.163514 0.164482 0.163514 0.306699 0.308325 0.306697 0.555720 0.558356 0.555715 0.974705 0.978817 0.974690 1.656620 1.662782 1.656577 2.729575 2.738412 2.729453 4.360045 4.372102 4.359709 6.749486 6.764979 6.748573 10.119793 10.138181 10.117389 14.682796 14.702097 14.676749 20.589751 20.605625 20.575620 27.858761 27.864086 27.830127 36.277809 36.267995 36.238892 45.298322 45.289451 45.343153 53.313454 53.628481 53.966327 55.931729 57.118531 57.589439 16692.529157 14789.500827 8131.061283 8787.559371 14241.175870 7515.857101 6728.595929 9224.961763 5758.199712 8015.894901 12016.253432 9393.146949 7527.406215 6147.128027 3246.460668 1058.262492 -4691.843905 4412.797238 17733.674322 -4260.016508 -11213.215133 -5930.059744 -5046.160051 -3552.596950 3599.493457 -3098.440602 -8387.650256 -6389.702784 -5825.951305 -5271.385008 -4785.542692 -4335.354411 -3918.882372 -3536.282664 -3185.461873 -2861.682514 -2558.724088 -2270.555542 -1992.753133 -1723.322617 -1462.825211 -1213.906756 -980.461216 -766.700381 -576.353002 -412.113719 -275.355895 -166.053075 -82.834070 -23.111218 16.755555 41.584324 53.701491 56.588936 57.338513 57.743791 16670.074004 15109.419965 10955.941667 10007.700418 10188.305381 6781.239950 8816.195969 12310.419460 12111.647601 13492.823641 13821.971685 12506.674175 10309.138270 8752.757954 7170.715551 5333.531286 3322.764846 4139.103797 6563.298268 5095.363045 1032.011809 -1768.027320 -3073.542228 -3680.825037 -3412.333185 -3181.454141 -4109.184204 -4896.585067 -4996.662878 -4804.925537 -4509.916988 -4169.089880 -3817.949925 -3475.042107 -3148.446386 -2839.422790 -2545.413760 -2262.654018 -1988.120073 -1720.674681 -1461.395403 -1213.233636 -980.261592 -766.794798 -576.623343 -412.479252 -275.759305 -166.451879 -83.196198 -23.420866 16.456917 40.727184 53.248013 57.597241 58.853804 59.286340 16999.987871 16083.787173 14497.394013 13699.603270 13769.453750 14199.479887 15620.824617 16868.039869 16722.022844 16160.804307 15284.960066 13891.614131 12323.379454 10972.320796 9619.446066 7938.452901 6199.455341 5489.859727 5776.089162 5419.997747 3412.405923 779.955917 -1466.726764 -2991.748325 -3762.578486 -3988.064638 -4138.287770 -4334.936860 -4458.088095 -4425.738276 -4259.421435 -4009.764829 -3718.480813 -3413.653756 -3110.897319 -2816.640898 -2531.699798 -2254.454102 -1983.229113 -1717.732348 -1459.571113 -1212.029802 -979.389519 -766.095210 -576.015066 -411.926310 -275.250330 -165.987645 -82.783038 -23.072637 16.690390 40.667108 53.178473 58.377970 60.051803 60.501252 13637.738944 13161.473469 12590.097390 14124.076415 14740.300257 11534.408900 10743.289105 10116.382856 7889.265664 5138.636898 2086.049588 2180.479390 3988.226283 -1137.822931 -4496.676845 -3384.507573 -2623.680866 -1840.333010 -2327.834189 -5985.265883 -7413.035170 -6542.217551 -6273.061353 -5958.033156 -5552.475084 -5145.073612 -4780.909979 -4487.740208 13818.274329 12331.663695 10338.048568 13674.878294 13176.971085 14697.258076 14356.236738 10350.369928 15080.830398 14604.150602 13750.884017 11131.812799 13359.861083 12388.973301 11772.614953 9843.708913 13881.885943 14567.750204 13755.307446 12716.243677 13892.435446 11557.876687 13191.309652 14775.575268 15499.749795 11177.668168 4278.415599 -11314.244132 14560.106015 13719.127602 13229.653015 13615.508401 13228.471068 10713.817676 12153.268701 10103.900148 15060.803118 8846.304914 13934.926549 14726.918591 9712.233068 13897.688324 13238.763648 15661.373847 13468.920860 10469.482135 12037.795663 12023.586381 15688.181862 14041.444688 12924.222254 14049.870568 9509.445095 8850.249090 8172.767331 9265.744101 15289.029380 15747.699806 15831.791166 11026.558388 11819.358221 8996.302111 9552.626435 6780.566036 14350.231628 8249.677704 13540.582079 14130.672850 13052.151317 8225.884106 14021.477332 3095.694355 8570.508927 3379.423612 11633.304092 14442.165366 9711.752924 14360.200593 15294.513251 9757.259167 11346.454159 10015.359674 5935.377696 3516.438799 15535.178701 15250.177426 13873.536662 12684.627321 11449.085478 14498.441005 16331.191061 16151.195956 16539.627884 17100.400515 10212.889711 7844.930283 9682.756764 4368.461025 13667.655275 7857.987412 11052.525475 13418.539553 8844.742955 12111.700073 7614.818216 10935.809965 8743.873476 3607.225620 3891.069684 9045.963327 7618.679801 3543.375907 15690.615565 15957.612573 15139.755457 15628.709832 15788.529795 13796.178702 16867.189587 17079.823463 16259.074001 9294.337734 5206.071185 6530.631107 5726.281815 5390.586566 11608.025985 9033.033830 4407.304809 1510.314664 4303.050520 3657.442925 8084.720701 4138.001011 9400.055756 6326.236498 8772.560294 6097.181761 4054.895453 98.882852 15753.724513 16300.049020 15594.695093 17291.431018 13153.653618 12374.872623 13429.720328 10013.092526 13246.272453 14696.868125 12227.300960 13048.768428 12363.042250 6536.918517 9700.722132 9109.465916 12422.192351 5950.918697 12290.098755 6588.319468 7827.378831 3524.291690 1826.256429 6353.160298 5673.308838 5598.598968 3760.171079 3556.395863 15733.129898 15665.069850 14533.654891 12709.743204 17153.114727 17972.898570 16278.113944 8736.594927 16037.570669 7302.443389 8589.251330 7867.509636 11153.968035 13299.896231 16133.014837 12925.740128 3744.777953 9850.252985 9686.793181 4657.056731 8825.832443 9989.125576 4454.094019 11415.515247 6098.667868 4721.846239 5393.104234 3615.043868 15548.988093 16025.010728 15510.143671 16021.796845 13617.617930 15441.809230 13930.211804 16280.017933 14776.376824 16376.473945 14607.416505 16318.942339 9949.223938 10898.064332 9412.190569 13056.720851 11484.997193 8900.137997 6262.886486 4833.881341 8653.149847 3061.367471 3714.091072 6799.457536 10751.899213 1786.282851 5539.955433 231.920533 15074.770849 15751.697116 15809.482748 14867.091983 16388.691913 17169.165958 14594.217362 14279.383206 12591.889971 13356.254194 8762.762808 7053.845075 10294.208030 11443.051068 5462.868333 6246.980951 5020.213137 6547.826997 7495.442066 10501.553763 4979.054286 4143.883115 6501.920503 8363.088001 4235.596966 2289.523806 2978.450343 5759.499438 14824.972584 15165.287690 14594.116098 16356.395073 15127.967358 15605.005534 12058.581552 14811.813562 6471.915095 14806.702598 6736.746338 12958.366996 5084.434011 3766.150727 8844.872938 7446.201746 7166.067332 7780.983603 6159.760553 8634.853400 7519.212045 3220.881454 5296.178983 6794.819272 5351.196796 5631.411240 5585.565520 3743.184150 15163.310939 15918.947028 16585.026355 16986.436487 14765.316732 17023.476599 14003.177027 14413.178893 10432.588295 9452.629999 3276.467802 12392.503002 8352.194854 12366.549549 7096.120965 7998.500253 12067.372999 3207.434283 1481.633845 4544.854884 6379.451396 10753.321702 3593.526980 9253.960472 3637.532885 4192.882755 1309.719930 2304.361983 15683.517034 16470.333989 16956.443142 16605.815156 16757.866930 12115.020251 12333.965639 12357.577185 9586.213059 12369.682426 9446.611133 11407.486868 10392.482036 3596.629291 10681.332327 2882.845428 7240.886630 2493.559704 3225.433464 11353.611074 6942.611510 6802.043598 7197.687955 5329.114458 3143.843957 443.261027 4843.318300 4388.496806 15944.675172 16498.997819 17559.979836 16702.582078 14538.455169 16500.934809 14883.394083 15631.492598 9637.557594 13814.697020 9603.312606 4465.231338 1269.295176 736.071968 2050.421215 4680.513953 4787.377752 1573.829047 3184.171266 968.705152 2669.560796 2005.043758 1917.639341 6686.620920 1467.128159 3261.474689 4485.495168 1878.363984 16086.520162 15800.536403 15776.934606 16880.547314 14468.528643 15095.891700 15741.295079 13724.085722 13817.012423 12735.377491 7000.684672 3483.587790 2508.163715 1777.687289 1933.224141 1477.738053 1967.933166 2422.261281 2455.125828 3831.700595 3630.161739 1250.438730 2097.983605 3974.284222 4181.958647 842.252611 1572.510744 999.928500 16474.471983 16436.969098 16208.556265 16775.512499 15085.423682 14492.794007 14980.467136 13113.609128 11167.497673 9642.554826 5196.962906 1655.648360 2109.143698 16723.090188 16713.922363 16380.394967 16023.670645 15565.599084 16445.984852 12710.109503 12872.152811 13418.267168 7217.759514 2912.951056 1422.443168 1137.829207 16560.656092 16579.099297 15548.682934 15951.060347 12537.272979 10042.831335 2530.983294 11631.978803 5658.819452 2035.499275 5892.088735 2795.701845 6266.008618 16265.485354 16447.565321 17277.580523 14266.492228 14772.880929 13895.483479 10316.054329 7390.926926 4324.199838 4192.987567 2581.089528 1996.709604 2719.993091 16057.099407 16066.277404 16532.523674 16087.599751 12732.776083 10884.754141 9254.815194 6128.171042 4398.819010 4728.336534 7875.417623 2149.592033 2293.516807 15963.098292 15493.515958 15094.903245 14962.299674 13541.349572 13566.155573 9990.890406 10736.323245 3638.349500 1390.549907 5211.462418 3201.005199 2715.697360 16054.678173 15769.739020 15957.877200 14666.316954 12123.351327 11956.169257 7060.451901 6549.780184 6042.252822 7100.999383 6010.590569 938.082930 3256.483572 16261.563760 16788.583799 17947.225273 12043.625835 13539.305161 3182.215052 2644.494446 4845.995347 3090.211202 6346.006105 3407.112198 4416.437043 2371.177754 16393.166594 16883.651678 17746.364872 13246.041176 11328.180277 6819.250846 8562.507857 8705.341675 7958.074502 3406.600913 4770.961899 2689.368556 3556.011612 16385.446478 16415.324576 16505.010269 15500.723656 12459.100899 11149.260828 12518.784586 9155.330319 7080.118915 5706.296693 6211.326986 4547.712198 10956.294234 16305.407471 16488.739080 16954.629600 14306.891565 12191.686950 11189.558945 7130.437052 8452.559343 5237.486670 10958.488057 4089.632918 6933.716518 5017.713240 16166.551036 16423.736874 17293.075324 12898.258532 13084.931834 10800.298884 8908.003272 9042.308834 5504.127243 8784.135758 9810.039264 4703.867004 3433.012583 16109.378112 16034.734802 16216.554672 16146.632658 12818.183717 12478.304550 11366.384019 11035.125076 1880.766066 7023.819595 9725.379863 2208.086675 1670.444433 16248.527582 16096.646249 15993.169581 13232.360557 10909.223046 9891.579391 14416.249939 12471.080518 1956.091637 12461.469591 3408.840936 5124.791001 4467.451908 16365.277389 16231.181578 16198.904583 15214.709847 12320.026830 14523.796306 13200.124729 15692.305073 9813.591162 12509.727324 3739.534353 4931.480066 5690.709747 16297.507227 16554.287805 17147.262448 14551.642711 13928.458463 15963.642097 13849.655409 14159.011763 13367.083403 14099.731096 6986.266907 2532.077517 2432.648837 16101.403735 16127.845467 16608.311810 11011.375520 14359.716644 14433.963024 13017.729847 15232.713152 6025.770565 7589.828389 4401.499848 3158.224314 2286.801779 16050.464452 16041.582626 16048.815917 15015.534597 14224.620115 12814.452305 14227.617754 10889.372655 12995.872757 15748.620594 6315.771545 3667.707844 -1566.511984 16171.312883 16614.814931 17121.941028 12891.278523 17415.132353 16395.022266 12826.460657 10929.303072 10787.749073 5593.031372 7265.774933 9442.243694 3673.040250 16083.174163 16320.910470 16888.902326 15978.025124 14462.707984 15042.327131 18762.751863 8642.130483 7440.281022 11636.256794 9954.208452 6125.187432 3019.316378 15752.418178 15438.378778 15889.582509 13952.659872 16086.711989 16957.023003 16099.435424 7263.078792 13777.551086 8728.741325 4900.462151 2661.595762 2996.542797 15600.503188 15437.914621 16379.843794 17916.075411 17076.806815 14872.667708 11983.272303 11308.925172 10781.845388 6458.477139 6199.339438 4453.346306 4842.698847 15737.317230 15900.456670 16229.231343 17015.801514 18988.981682 17548.562972 14867.029650 12503.724899 14000.398884 8600.042590 6314.983256 4404.240077 -8144.255195 15937.316264 16848.481926 17059.622928 18585.389457 17869.984204 14124.803864 16127.621397 10941.681817 8902.088820 6907.402720 5705.511330 6142.057866 1750.618301 15957.123932 16713.232071 16680.273223 18801.868073 16980.574395 16876.974719 8225.199609 13025.992473 7296.461593 8689.219745 8711.201311 6979.632083 2548.052303 15844.009184 16138.653292 17056.427017 19278.380581 18785.365851 10252.532772 13925.672870 13499.049847 15522.520263 12389.916664 5632.725460 7032.660842 3439.138569 15844.263872 16367.804863 17831.105931 17692.608310 18311.225568 14574.612662 9634.038976 15949.765360 11711.734301 15861.249087 4761.714538 5682.480036 8604.728688 16000.321665 15889.972363 16702.331949 18796.305783 17168.086515 15129.977942 9635.974884 12931.426123 9668.786572 9401.720764 11303.314553 6842.424774 2526.306177 16234.125540 15497.362062 14641.655591 16973.872652 16159.900308 14877.929175 18561.176111 15614.968994 13756.285656 9481.769269 2750.375636 3862.773583 4778.483035 16400.773221 15969.984010 15286.436915 18026.439122 15980.222271 15888.557175 20164.301213 16911.457061 10072.354647 11793.146457 7169.901219 7441.979770 3413.644567 16427.372705 16092.096969 15832.667593 19163.307879 14885.018153 10373.600571 14969.247556 17439.364294 16807.634664 11417.331690 11966.683735 4992.006500 4046.425426 16631.150008 16860.633186 18003.120200 16653.289126 13914.616621 14262.600456 17219.265265 17378.791968 8218.148608 4900.245071 9313.926298 9441.606118 8518.466732 17006.828465 17577.131375 19521.361402 18433.485674 14846.234495 16636.031003 11926.080760 15856.130134 12975.009641 5032.201402 4179.738116 9237.539708 3574.932667 17229.840689 17510.826904 18090.937398 17992.184045 16741.464960 18786.501717 15981.187128 15688.539060 15529.911729 12868.305510 14249.749341 2768.185408 6820.869253 17413.367104 17192.108063 17571.768287 15272.731490 19244.495930 16430.326732 18416.227252 18138.146123 11879.505209 13376.161046 12451.981165 263.371369 4813.861515 17892.824955 18429.403095 19522.990718 20765.670998 17635.483052 19571.349101 18715.904129 15545.946793 8850.110184 5427.361428 9375.811944 5706.008003 4542.237887 18312.665567 18470.271524 18439.136589 19471.454143 20643.272352 17338.440792 18948.274633 19723.850343 12608.351703 7212.969834 9375.846178 5474.471207 5026.641929 18378.439053 18275.070165 19299.381702 21967.412991 18975.594131 17294.485593 20729.900301 10712.923558 8606.334690 10359.068007 6336.861288 7227.770159 695.121856 18234.144510 17677.656310 17786.123982 21500.375220 22286.790334 18351.298332 10759.050879 7236.842765 9032.764418 10223.394234 3900.392723 2638.518061 4059.542721 18253.923125 18121.394503 18365.228742 18661.818792 21103.924273 20607.576252 18573.841692 8781.647881 14799.237496 7920.108953 4026.655841 2876.270560 3935.555348 18527.747300 19208.416790 19715.160324 22089.430633 21822.650950 19979.764861 19139.378870 15370.814435 15454.105490 12144.052405 8349.520342 5507.804917 1069.435812 18693.949803 19675.198155 21233.612666 20385.474073 21084.120155 18596.212957 16482.096907 14487.230958 18608.434242 13175.570532 13812.514842 7705.939283 2279.434588 18530.518013 18895.951041 19382.048890 23355.930209 20867.736728 23941.202984 18659.901275 16638.184536 16473.852332 5503.676902 9255.917086 4520.233585 16227.908106 18342.756089 19411.732921 21063.301319 23358.382983 21161.813530 22033.854874 17062.206929 14528.079263 10489.688477 12068.788930 3351.958395 4594.349082 55.890400 18497.551935 18797.996896 19537.070640 24268.491517 24483.474205 18795.224513 15180.157660 14325.680013 10913.683801 8553.960503 2091.113735 2755.085714 2881.515640 19365.937472 19981.924053 21412.925841 23690.634604 22112.980031 22784.328020 14469.588347 16560.630416 12999.122680 9079.712241 2481.753204 754.414977 -383.470991 20222.007322 20567.779743 22329.098942 20777.378217 22216.174912 17246.116336 12949.809882 16968.185206 14143.051950 8924.891619 7028.002319 4393.476074 9103.594000 20434.577487 20134.498625 21132.726159 24379.408369 20991.520623 20453.537851 18106.495610 13677.425744 11717.554315 11223.288144 6342.179245 11419.839860 2726.893444 20474.459291 19455.667448 19753.186846 22600.449811 21313.654915 20696.110735 17912.554171 13842.464286 12108.251988 12558.801455 4078.266239 -132.877504 3706.304733 20747.015407 20516.342665 21190.743066 23856.650844 23704.185049 20405.574505 18632.588509 16972.600870 12419.123335 12749.024136 7391.553291 6302.995109 7364.157173 20994.961384 22241.533094 23568.424489 24849.495524 20768.689733 20457.446146 18771.791464 14038.318377 9732.163525 9035.117526 10198.171859 4228.658075 2705.048584 21072.127060 22350.655267 23889.497340 22721.463887 22727.073470 19334.782441 19060.961073 17688.461721 12980.775737 10260.560695 7978.040067 945.335160 1393.805565 21455.722154 23060.584793 24566.517809 26023.260267 22101.536925 21719.251933 19392.976343 17600.564900 12279.261299 6543.299793 6361.474858 -2725.353485 4970.223586 22156.544791 23302.350091 25372.427559 21763.369440 21667.124633 21671.623819 16220.530918 14389.007236 11992.444575 4698.208765 8663.870381 8934.559753 1462.069909 22611.278961 21748.799931 21201.925473 24471.235442 23550.484457 23022.541845 18429.638734 16387.225582 10279.335404 8709.256233 6836.539413 -5675.806739 5198.326970 23073.119879 23238.633195 23999.743529 23319.807381 21845.846543 22989.407155 18697.056464 11982.461693 5197.105575 8355.251621 4081.185627 6340.314224 -12396.741192 23556.789635 24549.008630 25712.378729 24535.978525 20535.667577 19688.748456 19045.171144 17250.193587 14216.429266 9643.623502 6941.667361 3900.333112 3976.247089 23667.740479 24198.785870 26386.362828 24823.917899 21638.790798 21279.597184 20570.490535 13361.833378 13957.998795 9709.800692 7215.137984 12628.122845 9028.095407 23759.044248 24566.540012 25974.464563 28131.373998 21410.141975 20228.892308 16031.103747 12588.566573 6053.423555 1516.760785 -650.610535 9206.732714 2866.536424 24048.647483 26051.171312 28076.083372 24458.595218 21740.472069 17397.808309 18816.369075 16692.643632 9327.528679 10525.841975 -2.349962 6669.140912 2703.050583 24197.797556 24931.895194 25409.657241 23789.353307 21637.097424 16816.682175 17171.540704 13721.553474 12119.545643 7606.900338 1773.146751 10130.854374 9798.774972 24410.395796 24587.019653 24161.434260 27232.847468 20248.624856 21810.972915 17061.224819 13796.967069 9718.658231 7206.605232 3602.380630 3924.293983 3984.355507 24738.109356 24350.198627 21484.337054 22010.313275 23815.128386 21741.087879 17147.446986 12457.804555 12923.844520 7041.502509 7647.198614 542.271435 5758.747773 24872.263144 23831.607172 20446.746191 24123.549979 23721.526504 19239.944236 15273.804237 16775.488727 14187.105934 9330.866522 3397.181445 4492.022673 16085.870409 25052.786545 25199.175722 24066.302350 24218.258660 20569.671408 19856.319558 18130.411494 14562.711409 10054.088499 10930.063092 5325.229403 4231.952586 7200.828692 24971.856183 25088.588336 25218.259934 23332.494814 24202.157497 23165.668193 18491.163847 18288.296261 14428.124088 8577.309690 7262.983358 7087.677216 3590.473281 24569.499672 24344.450097 23421.055405 23802.124433 20098.385498 19035.076373 18075.955958 18243.928938 11242.645192 11410.456182 5253.553759 3128.439805 9901.607248 24651.346509 25450.997875 27130.166089 22720.832850 20364.670945 19062.318297 19100.294272 17627.586760 7665.277840 8296.495746 11847.291524 3760.012932 10714.380860 24981.009300 26213.025732 28455.400563 24731.778167 17507.966870 20820.017622 13516.138609 12859.445608 12086.647808 12457.844707 9629.460808 5261.639882 13814.018732 24916.205814 24973.260545 24054.805811 22397.736766 24653.681173 18292.478828 13600.957568 14971.724644 15884.281956 16573.834516 4555.156954 12103.935105 6396.809564 24655.108681 24758.881504 23785.189719 24891.724198 18250.666320 16437.113644 18345.247986 16725.260531 16916.139639 16705.335354 2561.985523 3369.503344 2606.847440 24303.795184 23062.842129 19768.926507 22368.026122 22703.229277 19606.947391 16928.981607 16257.229322 15438.378896 16247.016438 13301.316030 4227.943933 15335.260445 23768.970770 21268.087780 17489.738161 19037.856572 17237.575388 20143.783173 15732.194254 15486.794466 16813.799579 13433.429396 7689.388205 6877.064640 8950.236821 22890.234170 20043.743389 16530.537319 16471.259040 18852.928689 17496.298558 16054.910829 14859.306841 12569.671414 14477.523305 10592.792768 6199.008242 5021.381349 21854.722910 19326.466927 15418.489310 25139.993449 18619.812751 16917.494985 17949.455837 15402.632337 11680.431523 13707.779455 12895.798573 13031.467425 10789.378561 20966.335096 20752.516226 20087.557851 17827.884566 16637.653301 18505.445505 13488.585265 18319.410776 15057.403817 11272.063472 12579.376123 12045.268507 -20524.712140 19944.607406 20527.902729 21581.405431 17207.539438 17216.142478 16335.523547 16996.078344 9626.538697 16437.049977 14517.667507 11470.818557 12098.355852 4608.983257 18864.637381 18614.039006 19009.686276 19054.522297 15578.571131 14933.866170 16890.567253 16847.569778 12589.113072 13892.629656 15014.804129 9436.462442 8254.126483 17818.218543 15116.880945 14717.830149 20074.636855 14224.737522 16155.061638 16364.298397 9510.233596 14538.277434 11502.419471 14940.029761 12920.192602 4713.374650 17044.459862 12101.202435 9468.867890 18608.443868 22675.089488 18015.104370 16757.955051 10811.616417 17114.360747 16776.969553 10699.969525 9739.443816 1848.817233 17040.500648 12306.864412 7848.461685 15617.658787 10972.074173 8810.052482 18567.130742 6645.169735 17167.551945 16427.337810 11033.935183 9797.163621 4535.048598 17511.662103 14746.035221 10379.465012 16801.724494 10627.243790 15945.568130 12504.253683 15081.912388 14466.949348 18532.783286 19530.825670 12269.011706 8182.057137 17504.679129 14253.982869 7219.021998 15890.773184 16473.324439 14046.280524 11892.413271 18328.321835 12096.874878 18462.059290 11923.242299 13092.452511 15133.781888 17491.597633 15510.694951 8855.545455 14293.748017 6377.865335 12191.114580 16102.195673 16619.806715 16828.137182 11349.331749 10117.478841 7345.515859 17787.826256 17232.685008 16485.276837 10569.172855 7756.013952 16053.454662 16835.998679 14834.780669 15771.898184 13844.831132 20422.517449 19465.385769 14189.338568 14184.243800 16692.529157 14789.500827 8131.061283 18570.725394 16160.881593 16939.813762 17718.174336 19890.178941 22398.607816 17538.217438 12984.246485 13125.880450 11771.697102
</DataArray>
<DataArray type="Float64" Name="Velocity" NumberOfComponents="3" format="ascii">