<VTKFile type="PolyData">
<PolyData>
<Piece NumberOfPoints="2177" NumberOfVerts="2177" NumberOfLines="0" NumberOfStrips="0" NumberOfPolys="0">
<PointData>
<DataArray type="Float64" Name="Pressure" format="ascii">
 11890.061679 11792.441049 11482.640492 10802.980104 9637.527080 8095.077424 6445.040609 4903.413234 3633.954060 2622.759596 1532.139859 250.490353 -645.563142 -788.796356 -390.277359 78.829810 87.889159 -544.373006 -1250.883405 -1604.410255 -1837.091947 -2379.141685 -3279.129896 -4015.885952 -4299.140074 -4262.068868 -4070.875616 -3801.924393 -3480.802110 -3127.828644 -2769.770279 -2425.712384 -2104.957010 -1811.299393 -1545.805414 -1308.184625 -1097.445598 -912.221810 -750.936173 -611.882522 -493.266146 -393.228598 -309.871311 -241.284573 -185.582480 -140.940949 -105.634508 -78.067928 -56.800798 -40.567241 -28.302041 -19.191149 -12.724296 -8.562617 -6.253465 -5.294615 12063.028729 11979.057053 11736.981088 11153.375280 9809.327326 7847.245074 5932.043208 4283.397743 3104.233288 2534.571215 1687.486622 -289.799678 -1409.292323 -1233.046907 -394.736182 510.566226 797.599230 -598.382777 -1718.444365 -1740.789200 -1530.626509 -1548.708781 -3046.757325 -4421.942942 -4590.670673 -4401.886201 -4146.469464 -3859.474637 -3521.286092 -3145.728079 -2776.482909 -2428.238383 -2106.105115 -1811.998227 -1546.347798 -1308.659901 -1097.880119 -912.622906 -751.305555 -612.220277 -493.571973 -393.502274 -310.112951 -241.494782 -185.762402 -141.092175 -105.758692 -78.165660 -56.868155 -40.585284 -28.206829 -18.858916 -12.079842 -7.981132 -5.885574 -5.062271 12182.217980 11972.038857 11654.561761 11503.147311 9690.582596 6379.498525 4481.090371 3055.591051 1848.206608 2704.951476 3035.752872 -1812.150180 -3326.617856 -1893.847545 -387.627135 1463.920513 2488.403278 -981.845672 -2938.864912 -1991.574425 -722.125548 68.906666 -3148.875674 -5337.524185 -4994.273209 -4575.470162 -4242.057738 -3958.359635 -3608.373484 -3171.269516 -2783.175240 -2429.921902 -2106.277761 -1811.713850 -1545.935323 -1308.225284 -1097.458305 -912.225776 -750.937410 -611.882907 -493.266265 -393.228630 -309.871306 -241.284519 -185.582283 -140.940271 -105.632178 -78.059940 -56.773460 -40.473634 -27.985757 -18.040068 -10.390531 -6.799385 -5.260628 -4.678794 -6.741349 -5.199336 -4.509299 -4.408358 -3.889671 -3.557370 -2.721921 -2.599748 -2.481367 -1.735179 -1.703300 -1.664332 -1.107867 -1.100605 -1.087167 -0.703201 -0.702328 -0.697154 -0.442161 -0.442718 -0.440397 -0.275002 -0.275690 -0.274489 -0.169068 -0.169605 -0.168918 -0.102714 -0.103083 -0.102671 -0.061659 -0.061898 -0.061646 -0.036570 -0.036721 -0.036567 -0.021431 -0.021524 -0.021430 -0.012408 -0.012465 -0.012408 -0.007098 -0.007132 -0.007098 -0.004012 -0.004032 -0.004012 -0.002241 -0.002252 -0.002241 -0.001236 -0.001243 -0.001236 -0.000674 -0.000678 -0.000674 -0.000363 -0.000365 -0.000363 -0.000193 -0.000195 -0.000193 -0.000102 -0.000102 -0.000102 -0.000053 -0.000053 -0.000053 -0.000027 -0.000027 -0.000027 -0.000014 -0.000014 -0.000014 -0.000007 -0.000007 -0.000007 -0.000003 -0.000003 -0.000003 -0.000002 -0.000002 -0.000002 -0.000001 -0.000001 -0.000001 -0.000000 -0.000000 -0.000000 -0.000000 -0.000000 -0.000000 -0.000000 -0.000000 -0.000000 -0.000000 -0.000000 -0.000000 -0.000000 -0.000000 -0.000000 -0.000000 -0.000000 -0.000000 -0.000000 -0.000000 -0.000000 -0.000000 -0.000000 -0.000000 -0.000000 -0.000000 -0.000000 -0.000000 -0.000000 -0.000000 -0.000000 -0.000000 -0.000000 -0.000000 -0.000000 -0.000000 -0.000000 -0.000000 -0.000000 -0.000000 -0.000000 -0.000000 -0.000000 -0.000000 -0.000000 -0.000000 -0.000000 -0.000000 -0.000000 -0.000000 -0.000000 -0.000000 -0.000000 -0.000000 -0.000000 -0.000000 -0.000000 -0.000000 -0.000000 -0.000000 -0.000000 -0.000000 -0.000000 -0.000000 -0.000000 -0.000000 -0.000000 -0.000000 -0.000000 -0.000000 -0.000000 -0.000000 -0.000000 -0.000000 -0.000000 -0.000000 -0.000000 -0.000000 -0.000000 -0.000000 -0.000000 -0.000000 -0.000000 -0.000000 -0.000000 -0.000000 -0.000000 -0.000000 -0.000000 -0.000000 -0.000000 -0.000000 -0.000000 -0.000000 -0.000000 -0.000000 -0.000000 -0.000000 -0.000000 -0.000000 -0.000000 -0.000000 -0.000000 -0.000000 -0.000000 -0.000000 -0.000000 -0.000000 -0.000000 -0.000000 -0.000000 -0.000000 -0.000000 -0.000000 -0.000000 -0.000000 -0.000000 -0.000000 -0.000000 -0.000000 -0.000000 -0.000000 -0.000000 -0.000000 -0.000000 -0.000000 -0.000000 -0.000000 -0.000000 -0.000000 -0.000000 -0.000000 -0.000000 -0.000000 -0.000000 -0.000000 -0.000000 -0.000000 -0.000000 -0.000000 -0.000000 -0.000000 -0.000000 -0.000000 -0.000000 -0.000000 -0.000000 -0.000000 -0.000000 -0.000000 -0.000000 -0.000000 -0.000000 -0.000000 -0.000000 -0.000000 -0.000000 -0.000000 -0.000000 -0.000000 -0.000000 -0.000000 -0.000000 -0.000000 -0.000000 -0.000001 -0.000001 -0.000001 -0.000001 -0.000001 -0.000001 -0.000002 -0.000002 -0.000002 -0.000005 -0.000005 -0.000005 -0.000009 -0.000009 -0.000009 -0.000018 -0.000018 -0.000018 -0.000035 -0.000035 -0.000035 -0.000067 -0.000067 -0.000067 -0.000126 -0.000127 -0.000126 -0.000236 -0.000236 -0.000234 -0.000437 -0.000436 -0.000430 -0.000802 -0.000794 -0.000778 -0.001466 -0.001430 -0.001381 -0.002690 -0.002539 -0.002380 -0.005052 -0.004426 -0.003925 -0.009850 -0.007218 -0.005904 -0.013822 -0.008991 -0.006921 10465.868978 13887.492435 16952.170565 14351.498600 11713.977315 10979.583359 10834.395667 8019.337283 11803.636410 4318.309565 5929.472643 6706.426210 4024.340678 2276.632884 375.606809 -88.099689 -276.181732 -418.505671 -524.397415 -584.030945 -600.230141 -583.617090 -545.680887 -495.587290 -439.736431 -382.401000 -326.452491 -273.844782 -225.868191 -183.279174 -146.388816 -115.148876 -89.242894 -68.176189 -51.356255 -38.157875 -27.970980 -20.232220 -14.442853 -10.176148 -7.077378 -4.859045 -3.293408 -2.203833 -1.456014 -0.949735 -0.611553 -0.388554 -0.243215 -0.149266 -0.088368 -0.046696 -0.020425 -0.011361 -0.007907 -0.006544 10099.551781 12889.889825 17415.642656 16310.305298 14255.839802 13404.780690 11072.362353 6832.452642 8893.705848 4205.508757 3644.260975 4076.428250 2011.054778 843.798037 202.462828 -97.294332 -273.291325 -416.773252 -523.403624 -583.332682 -599.741078 -583.306092 -545.505986 -495.507032 -439.720121 -382.428582 -326.510526 -273.923096 -225.958269 -183.373781 -146.482107 -115.236524 -89.322076 -68.245408 -51.415075 -38.206627 -28.010491 -20.263589 -14.467287 -10.194839 -7.091429 -4.869433 -3.300963 -2.209241 -1.459826 -0.952381 -0.613364 -0.389782 -0.244065 -0.149958 -0.089329 -0.049870 -0.025142 -0.013570 -0.008694 -0.006891 9349.336279 10523.392076 11965.160651 11715.885405 11443.094670 10972.894657 9303.835424 6811.218508 5852.328423 3996.189480 2818.977093 2122.051096 1221.284706 503.573565 117.784635 -100.709732 -270.409694 -416.311788 -524.073653 -584.110990 -600.317322 -583.662322 -545.699385 -495.593840 -439.738502 -382.401592 -326.452644 -273.844816 -225.868197 -183.279174 -146.388816 -115.148876 -89.242894 -68.176189 -51.356255 -38.157875 -27.970980 -20.232220 -14.442853 -10.176148 -7.077378 -4.859045 -3.293408 -2.203833 -1.456014 -0.949737 -0.611560 -0.388579 -0.243308 -0.149602 -0.089562 -0.051420 -0.028080 -0.015395 -0.009396 -0.007152 12103.009343 11677.463663 10852.574500 11357.038370 9956.639219 5706.026241 3393.754408 1816.765324 36.834817 2492.502787 4266.751742 -2748.858681 -4595.357711 -2170.248840 -388.857216 1817.573961 3006.250890 -1289.129354 -3508.878711 -2109.255752 -615.502260 -521.079615 -4492.674664 -6037.612462 -5138.502784 -4624.893221 -4270.838132 -4004.865126 11732.777760 10502.112192 7762.227218 7543.844614 7497.826160 10663.795378 8057.691739 7006.481766 10184.545718 12573.520461 7423.324525 9854.583370 7896.658436 12797.064598 9551.674484 12596.512317 11040.471012 11648.777078 6750.831000 8556.160810 8311.108476 8953.718475 10987.780773 8259.184536 8792.299675 6192.202927 257.070572 755.381855 11586.037381 10888.341499 10120.900287 9033.967409 8639.212050 10058.295568 9927.296222 10075.666087 12932.963384 8083.484017 9802.835513 7438.524058 5960.389116 12663.874257 5524.096660 5193.856255 7557.573104 6190.032726 10206.984184 6396.580126 5114.031617 5002.036142 6809.500142 2960.586819 2229.236543 1134.738602 3852.663433 -65.720893 11729.345863 12748.460043 15521.144901 13551.381887 11465.594662 11157.529480 7876.001195 9669.368625 9538.893796 4248.437299 7518.430912 13847.451675 2828.914621 4439.411438 5673.473614 2825.070599 3011.875042 1483.672139 6782.682316 6296.897207 401.650063 5738.525561 7757.811350 3434.169820 2014.458802 3916.859176 1877.530160 1175.393243 11802.388101 12379.284416 11117.576714 13391.715329 11962.711469 14916.586245 13475.969839 14793.693481 17260.206626 12515.131948 11101.512096 9411.981036 10399.130761 6284.845642 13240.480797 10063.634139 7482.596689 12349.360572 6525.777576 4626.194047 4295.563826 5254.356595 3466.286768 287.322022 1579.656652 829.750906 999.271268 5.549163 12018.905579 12057.230278 11778.927647 14351.470180 16425.776986 13770.080488 15016.439808 16680.621893 15006.417614 12262.342891 6582.011146 4446.183092 8771.830740 10994.299988 11791.615490 7686.698678 9527.021061 5448.199441 2081.632999 3543.332263 8501.209285 8179.988959 6455.011432 4962.239747 4091.067271 3319.729867 965.975055 1316.235466 12264.620249 11971.033006 12856.541042 15635.741290 15126.192344 13238.977520 11877.487606 13354.251256 14450.643901 13423.878732 12325.301072 13487.798976 10983.331501 6991.517664 10198.720932 7223.849479 10699.524746 10000.199730 8819.179399 6271.677687 1672.523211 2914.543154 3719.188127 4891.251026 3196.700104 2317.034511 1691.101874 842.339572 12671.078172 12120.666170 10216.151433 14321.180313 18310.456432 16843.759641 16236.231660 11780.731204 14515.503023 11532.657742 12720.566106 10193.836367 13098.847159 18376.802295 14360.835555 12092.315738 8833.241420 7272.493641 9879.018114 9790.219637 8859.543717 7722.691174 6345.099267 4942.188642 2034.849992 823.071314 1806.249444 2737.425275 13378.407206 13582.442974 13719.540347 18605.418823 18555.703722 16433.831392 16966.982292 21122.527989 16750.070472 18620.282897 14253.501115 16633.009835 12346.863461 13095.929543 10129.239520 10451.235398 9982.264106 12142.775420 5077.847726 7001.021038 8367.512640 3430.285339 3186.312848 6146.056837 7597.075126 1548.085825 6309.297480 2134.034257 14127.107870 13684.465156 12654.130548 18827.919064 18928.708339 18630.648859 19046.221993 17431.941379 16805.374636 16652.283943 12161.224235 15260.656785 12165.459731 11938.585182 6433.075110 9248.250023 5955.278920 14270.442895 6941.851943 10769.123091 8059.923362 5786.415665 5408.724357 7053.870424 4994.212267 6242.528324 537.664730 4503.044362 15012.720467 14430.479189 13497.675152 20709.498310 19902.736687 19241.176141 17074.575514 15898.159027 14827.333117 17088.830330 13023.307782 15098.299064 8075.122760 9358.645071 11137.135789 14149.624032 7752.269296 9040.366119 6374.081578 10210.807874 10277.524002 4800.726500 5591.928470 8008.214606 2113.594719 3440.400513 5245.306589 -1446.588372 15649.589262 15513.173096 15671.198228 19966.136501 18429.004370 19431.058254 18865.550330 18682.777205 12524.839840 15607.726429 8947.719307 16393.681071 11929.318788 14437.173510 9135.080141 13500.349859 11169.249468 -1076.874940 4107.968939 7219.108343 7040.548916 9800.474320 3492.115015 4771.903698 4873.924469 6386.637990 1087.627989 -2194.814538 15758.843971 14815.962439 13712.427553 20347.115504 19772.942583 16239.167456 17458.644544 16358.536121 11193.123294 15577.134793 11076.414840 13138.061586 13865.415826 2807.117017 7413.700208 1911.564730 9651.252665 3331.274541 6849.969373 12740.957366 8033.296749 11351.966605 9422.803107 5633.450054 4064.337782 3367.828018 3687.494440 4019.516967 15849.607162 15057.224775 14408.523509 20186.300705 20579.343028 20388.415299 15991.419226 18010.454056 14825.206203 15920.679627 11705.707404 3963.509750 1742.519735 1660.347832 1455.245421 6880.626347 4934.647125 2054.546290 3860.327559 2159.236537 1899.249929 812.331955 1628.450403 7891.740584 2120.258474 5871.225085 5717.875183 3418.433103 16195.950878 15534.014538 14562.254982 19965.460273 19496.285536 18849.279808 18949.275728 15697.371817 14666.170701 12823.514601 8495.320772 5083.336475 1199.690406 1916.892554 -682.767818 1696.852226 623.198297 3497.734676 621.677162 2959.227930 2936.281329 2287.506228 1292.375813 978.671929 3651.431599 1523.042397 1914.658343 838.529740 16864.567722 16259.636251 15439.668382 21010.276356 19164.724255 20558.911601 17806.254318 16740.706099 15088.419859 7342.314989 6519.631143 322.817324 -73.046077 17564.147863 17346.615482 18047.514152 19910.759428 22342.698025 21561.395893 18946.288541 17322.925740 16419.185741 10272.450255 2717.737439 601.008637 1864.750546 17792.621459 17427.759256 16382.869825 21161.308663 19336.667530 17119.978300 13872.004242 16443.873212 6463.031107 2463.306139 4054.585811 5092.638410 7660.792383 17871.958577 17011.140368 14765.214415 19431.211833 20873.888193 16769.953041 16084.023383 12375.943330 8961.780004 10294.600170 2084.591441 1471.452726 4470.556176 18302.588705 17689.891019 16454.021717 19621.801393 18206.630626 17497.745671 15809.390976 8630.036711 8605.701655 8355.240117 3789.088364 -8005.020473 442.938024 18976.265599 18686.685048 18209.095603 18730.818929 19517.670971 18676.177922 14994.425302 9495.626434 5792.847464 2812.608912 6371.931316 4429.087175 3131.491790 19630.301078 19444.023007 19164.173841 19732.190305 17632.521506 18794.998301 13000.633960 12232.047150 8747.338173 5688.854335 8246.605054 4610.925751 1528.467403 20135.530431 19711.991882 18852.243690 17830.006726 17950.848380 12458.626123 12661.063982 9881.496162 3648.258043 5610.444612 1059.781989 1501.497238 1461.011346 20519.299255 20389.752708 20658.485552 16607.730837 16664.621896 14146.130555 13196.941813 13365.894744 12012.372280 4809.576126 4375.491778 7567.941982 388.167697 20752.215431 20838.950661 20972.613875 20190.967811 15977.840987 14947.421104 15731.801395 12127.381413 9946.199664 5393.765763 4798.266679 7304.389902 5647.896148 20953.568271 20643.736987 19211.302503 17751.374788 14066.940209 16924.994825 11068.667627 8324.854878 9755.789609 9578.215273 6496.724626 6451.495608 -8117.579610 21327.209416 21109.373405 20241.178077 17323.071066 17667.934969 13138.289675 13321.146058 13088.297960 10014.703724 8737.314605 7683.677984 426.799355 3495.521705 21731.478739 21558.955878 20789.291532 17782.625388 15784.896438 15631.188378 12609.138835 11500.161006 4036.098500 5689.843817 4358.174457 4314.237323 3335.352915 22064.681935 22204.481641 21320.234224 17763.770736 14026.859007 14981.618822 15676.874654 11103.167265 6727.854966 12898.883079 3951.981445 5921.591374 5284.257404 22223.929031 22797.102322 22186.872719 20401.635969 16563.520348 16563.810081 14495.179859 15719.394402 10134.390895 8788.015379 4359.918941 7246.491129 5458.313622 22102.858108 22435.975391 21756.606376 16700.461542 17382.349872 17339.040559 14937.931124 17650.875173 11986.204003 8440.572257 4917.050545 552.607303 2256.205699 21927.163245 21206.423021 19212.945887 15592.564705 19542.336801 18837.034449 18767.088367 10631.824435 8998.993241 8931.145739 3993.615494 656.961016 1503.569002 22065.394187 21657.968402 19988.383026 17892.651610 17988.216744 17393.260265 17471.076578 9035.577209 10010.780029 9211.901412 4449.001874 3559.616391 -6928.905574 22356.479349 22455.246185 21409.289126 18259.907143 23901.044160 22495.643984 11013.791961 12979.177508 10583.233881 7149.023183 6255.043857 7204.309467 4283.139912 22536.175067 22646.821152 22338.818322 19292.401484 21032.675035 17999.461978 19323.463774 13723.797126 11366.654269 9264.435362 4729.259327 9592.843803 71.396269 22576.040157 22004.814858 19714.663694 20015.052760 23113.635772 18444.178703 15988.821877 7115.385134 12659.983425 7616.861867 6399.172668 2581.172874 4389.425587 22711.976573 21943.557054 19144.705721 21651.910054 22003.874484 18302.143060 17511.487712 13858.582683 12820.982188 10487.019258 9642.991754 5818.168786 6614.590125 22736.757107 22382.619501 21098.223749 21559.605846 20442.015193 17869.767445 17193.306163 16683.790073 9739.474047 10285.427028 8217.165601 5452.575359 60.054664 22519.760068 22331.246700 21169.279117 19662.197166 19805.171609 19941.194192 18991.096607 11086.159910 13558.815044 8992.369566 6966.547275 7071.821633 1692.388635 22490.811065 22848.321665 22245.674389 19977.169716 18484.923830 19435.029427 14834.043093 13737.952769 13279.307075 8275.104884 8161.024050 8162.223268 3108.355323 22903.994036 22588.095136 20887.967692 20329.027631 21759.602428 16077.543734 16990.020035 13578.225315 12933.984707 8360.550355 8569.159628 5084.775560 3233.655021 23639.494908 22863.019235 21770.482982 20369.692028 20852.167979 20355.306919 18514.456159 16238.453732 10743.476293 9270.956766 8015.474045 3659.507948 8122.533039 24241.659068 23095.331460 19674.072007 22214.324822 18791.433909 21183.766713 16694.556572 13718.600277 10343.348653 8543.542395 3597.528258 4084.106063 3612.336171 24489.134995 23433.403432 21071.474968 21562.711620 20787.515462 17757.350060 19735.306648 14655.402807 13290.289063 7046.697320 4426.555448 3295.836332 3018.000893 24474.821164 23381.525125 21676.627835 22195.029219 21009.818761 18957.573441 20898.897053 16164.385313 12584.058490 12557.713235 4053.896874 5442.692887 2932.553695 24463.173919 22875.694106 19195.606493 21577.121778 20697.235959 19039.512446 18551.794022 16736.513211 13634.512196 9522.522939 10918.055349 6088.932497 7155.944314 24521.262921 22753.423222 19159.419875 20024.708899 20104.606760 20591.383785 19158.141204 15408.377749 12246.783373 3769.539518 3048.107345 7103.500469 -6703.410367 24560.387138 23060.383680 20414.735557 22441.791175 21690.059850 22362.693596 16687.065937 14131.011216 12194.865428 7142.795667 5992.707078 5661.164582 6731.314370 24437.670078 23566.003572 21464.632230 22545.916680 22391.288699 24001.167412 17655.774782 13598.867625 15692.923138 9165.155969 8617.683061 6105.601014 7224.088982 24273.591435 22553.026475 18658.267371 22065.532894 23991.064254 18830.468392 20066.168651 16554.445930 15071.325648 10114.498621 8497.283459 1990.012732 10838.549714 24667.572516 22959.228744 19232.407937 23668.263481 21666.730449 22283.831743 20448.299244 15921.289428 13311.876816 11375.059725 9612.913891 4727.160402 8156.247738 25240.851075 24125.034880 20570.596670 21190.986622 22571.602134 21486.105660 21676.439898 14211.155916 11911.825893 7804.395580 5629.147167 10873.991454 3574.481692 25267.214716 25070.627319 24215.752121 22580.029930 22679.865178 20994.416895 21105.740899 14743.588317 9410.325162 8477.367336 7511.966373 9491.173353 -1334.732303 24878.149403 23430.000043 20131.472388 20721.033734 23778.696926 18954.524517 16710.143984 13650.899972 9608.955050 12520.377504 8865.105130 -2207.463429 1311.906039 24957.082140 24721.658492 23757.581645 23405.453277 19775.700707 20123.829857 18684.072394 16578.695769 11638.536582 9664.513050 8454.602862 10920.089239 5172.052600 25089.585026 23934.190868 22336.983650 23006.200666 20771.302014 17068.598490 17973.356994 17233.963390 13279.839948 12550.316096 10705.861093 9416.875537 7015.556556 25284.340317 24489.910038 23809.402751 21847.525739 20743.139341 22312.215082 19942.947793 18297.832137 14096.402644 12533.685296 7574.909525 10522.397550 -2064.222615 25500.350968 24153.683461 22976.025472 20832.846326 22136.010891 23618.228211 17905.663038 20470.141143 13587.769206 12913.036429 9905.842426 5841.511507 -7541.101041 25763.592253 26297.674530 24618.087297 21048.074175 21727.931377 20008.246493 17488.717283 19564.083650 15621.038759 11409.026962 6847.117033 5393.951239 6619.049322 25582.723390 27113.994009 28357.630703 21468.272626 22784.302877 21580.564930 19474.761023 15901.880906 14187.807191 10463.279966 9824.741570 8443.387935 4704.855184 25245.478735 26708.228775 28264.301898 18626.123956 22549.409446 21511.795483 20615.591687 18576.684632 13431.594893 10226.681550 9939.679744 5073.159936 909.313035 25175.960114 25143.820669 24944.230314 19425.877898 24843.799700 21711.677018 20306.538010 20791.754429 15335.068382 13943.449029 11041.087957 10281.766427 5967.781734 25529.123945 25184.557344 22340.718270 22526.288718 24063.470402 21180.238665 21223.950707 20419.040275 16196.815707 10418.658133 7618.336206 8336.132455 -940.397409 25947.697789 25479.068887 21399.783587 23904.059151 23871.042971 22728.716091 23151.352019 20673.331257 15745.278365 13949.082318 7402.277373 9143.677971 15536.086260 26130.731385 25662.406991 22194.867026 23019.555574 22837.537398 22840.699072 24489.660318 19872.208808 16539.279595 14088.323833 12901.140164 11304.560966 12069.180731 26425.780883 25981.200472 22807.095886 23373.737584 24656.017955 21557.550916 25260.966857 20387.454313 17540.572293 14426.322436 13239.915233 8701.016578 9297.357460 26723.190530 28682.653067 27539.608188 23956.952560 24680.177183 21733.634452 24600.163478 21594.981056 17863.555793 13136.526592 10359.847800 8850.459404 1422.330511 26409.626718 27978.179645 25912.485616 24511.888699 24246.165453 22076.065354 23161.349403 20859.574799 17384.369927 11387.083704 10700.775897 7226.325204 17570.815620 26260.590159 24967.112650 21920.697736 25384.799417 23774.184569 24633.504840 22326.560858 20319.833236 17645.670054 12309.895697 10600.724015 8457.225732 11804.737196 26662.740597 26129.024447 24020.830151 25169.563654 24228.780942 26530.566673 23440.480566 20444.711138 17942.819364 11218.043391 7751.253601 6335.724265 -23699.213272 26613.939109 26216.473066 23209.105629 24755.506844 25597.961532 23803.462617 22843.802431 19256.839740 17937.494875 10995.891349 10114.726787 10338.513596 21391.752071 26111.000090 25402.439023 22890.039977 24392.024310 24653.907273 23617.988718 23378.970477 20355.522535 15614.100483 12733.728772 7544.907686 8184.781095 12960.355465 25898.451902 25306.806887 24410.474658 22963.415791 23777.941566 23311.436904 23001.793266 20619.653615 14610.488077 12889.510486 10152.026748 2010.973687 7011.860940 25776.942034 26184.543324 25722.288572 22748.214069 23684.572330 22777.221585 22383.130026 21141.094217 12618.717357 12668.679965 8382.311416 5088.346758 5261.588134 25130.502001 25379.397401 24815.980658 24079.445940 22326.729473 23229.613437 22323.935296 21615.596611 16476.700143 12238.517314 8300.765443 5285.255068 10772.924729 24304.224157 24222.420170 24174.917583 25260.403298 23500.132691 25067.725576 20967.963373 20924.260473 16833.983749 9046.628489 9952.696150 5061.867150 9050.939480 23599.721219 24443.537564 23703.416675 24148.236798 22434.811326 25500.301563 21975.226250 20968.229076 16208.169787 9054.082431 9881.973504 969.286575 5422.243776 22820.251575 22595.892199 24357.508412 23970.062806 22947.866872 24445.902175 20404.525646 20510.143261 17414.154851 11385.503365 10872.179999 6025.037383 4530.812261 22509.628681 21858.736216 23523.088431 23683.519258 24829.460237 25081.157336 22272.506791 20700.879209 17661.810063 11754.404520 9576.489017 5363.550021 9207.190593 22820.083345 23844.338955 25441.566098 24635.572866 24223.419147 21536.808444 21382.430087 18943.881377 18085.160660 10838.289564 10901.637996 9744.175501 2465.052360 22996.279188 23452.500574 22945.137188 25876.299285 23853.952917 22517.744604 22969.624566 18794.368175 19396.038505 9293.534637 13019.985343 5485.469965 9658.023336 22575.920008 22735.402294 22965.927808 22008.316949 22223.436273 22126.452493 22367.567634 17217.898608 19511.573628 11509.647674 10396.527333 12311.418087 2908.136758 21682.739915 21253.626217 20275.673177 24776.248501 24853.657241 22629.554567 22135.946104 16735.539595 17851.419274 12696.784724 11852.929401 11530.250241 5488.592965 21253.966100 20994.947596 20609.999683 25954.263274 23350.554069 23965.468486 22350.735602 19078.038391 16652.032459 10681.411483 10763.917475 10619.532748 7489.686927 21339.293783 22190.525832 24044.980040 25841.098113 25542.220192 22199.215146 22415.627884 16931.035091 15882.671697 11466.155264 12113.750584 6982.125745 1931.482892 21242.803398 22441.637622 24061.156031 24243.579096 23623.520583 24069.376941 19263.247061 16360.358098 16339.118620 10672.276392 8408.522546 8907.050717 1153.067105 20833.251197 21255.423815 22219.419733 24448.306771 23035.562123 22109.814716 21693.274515 16671.495128 14162.829066 11920.438888 5028.306839 11210.736541 6502.212575 20477.106893 21330.363489 23164.501199 24138.542823 20468.591126 22542.984193 19885.171610 16249.968009 14642.624439 12164.223089 5261.280425 6846.201292 4614.806941 20220.749217 21774.867765 24066.194359 25021.763616 25005.770764 22124.536122 17488.590369 15720.164544 12237.390429 10758.716977 7995.320072 5220.845682 4552.894367 19910.902109 21729.988217 24340.930158 25240.737251 22441.444098 18404.494299 18466.444028 16392.351497 11546.226337 8922.499828 6624.923337 3709.505390 5437.833506 19223.047184 21605.382479 25161.370645 23618.101914 22798.175079 17570.548327 15884.014328 16303.275130 11879.119975 8399.626284 8234.531518 3413.787427 5029.089328 18011.992906 19749.412457 22510.745006 23430.467410 20666.769432 17887.055124 17687.071104 13671.844797 11398.728427 9164.747548 4166.649960 4058.859985 6361.805436 16644.318511 18187.208545 20928.136028 23435.478807 24171.314201 19057.213276 14375.890891 16144.273459 11148.623724 7922.445935 6370.747134 3635.327102 5081.747649 15115.516386 15667.717282 17491.349218 23973.669855 18500.078849 19030.275281 13455.843353 8230.102473 10316.800229 8105.547902 5090.606280 4636.244820 2671.660234 13359.667005 12046.486119 11435.701824 17820.809989 14480.843833 13514.361370 12535.246040 6879.630167 10008.742495 7192.908047 6250.563235 7047.533630 3486.741606 11861.535508 11018.886865 12713.843206 14354.887907 14025.916445 12569.394762 10395.168347 9174.342257 13295.880027 8220.184026 6854.793599 6335.286495 3701.218442 11221.793504 10651.272296 11373.920782 14823.586770 13800.171040 14935.871161 22006.109914 12881.486485 12065.542789 10843.220655 14038.166288 5676.372278 3430.084108 11217.371005 10183.720665 10777.504353 14213.106894 15542.222293 15804.823520 19246.419278 16848.172126 20446.147554 17186.586579 12644.772889 9040.016900 3700.125281 10862.367531 10592.113003 10062.121295 15384.388081 14922.365161 10958.691129 14228.055700 11588.125328 12985.697469 18355.135530 14181.513424 17877.397177 7619.626638 10352.077023 10293.934008 5256.764085 15849.286255 15500.283523 15444.173501 9687.141714 14365.570175 13239.257018 18697.301252 18456.433382 12706.941686 6504.949646 10465.868978 13887.492435 16952.170565 19832.631010 22702.153434 14288.766129 17019.510088 17047.918467 20096.651121 12598.517803 15698.107973 16429.544123 10909.428790
</DataArray>
<DataArray type="Float64" Name="Velocity" NumberOfComponents="3" format="ascii">