<VTKFile type="PolyData">
<PolyData>
<Piece NumberOfPoints="2177" NumberOfVerts="2177" NumberOfLines="0" NumberOfStrips="0" NumberOfPolys="0">
<PointData>
<DataArray type="Float64" Name="Pressure" format="ascii">
 21842.139549 21806.661143 21679.917254 21402.997209 20958.298122 20388.646763 19793.055078 19242.724838 18670.599707 17938.524565 16945.603839 15702.468021 14304.802849 12777.411012 11132.330898 9498.103935 7977.078097 6593.808954 5462.818960 4667.143185 4143.410300 3710.503044 3197.798618 2583.472837 1911.296587 1171.854148 355.323476 -488.727036 -1282.911484 -1939.537275 -2397.719694 -2657.827133 -2758.478385 -2745.749673 -2658.954481 -2527.215575 -2370.538075 -2202.067243 -2030.209318 -1860.244809 -1695.440150 -1537.772554 -1388.388024 -1247.886882 -1116.502644 -994.217068 -880.838742 -776.065033 -679.550915 -591.035495 -510.661998 -439.690694 -381.331772 -339.344937 -314.243121 -303.486882 21896.823996 21854.485099 21675.300308 21316.619287 20890.216909 20364.666405 19755.674998 19253.995387 18834.261074 18323.138312 17487.226463 16310.133613 14975.157946 13372.981148 11431.434506 9605.901341 8099.054746 6612.587168 5355.345925 4596.263141 4312.316579 4133.324374 3603.105246 2846.718926 2134.327152 1389.319998 545.208774 -306.817778 -1151.159566 -1879.436803 -2374.244932 -2648.743336 -2754.671555 -2743.994279 -2658.093180 -2526.796885 -2370.361498 -2202.031261 -2030.257261 -1860.343097 -1695.568133 -1537.917151 -1388.540658 -1248.041613 -1116.654752 -994.361159 -880.964171 -776.141979 -679.486378 -590.539664 -508.873785 -434.903385 -372.114323 -329.699298 -306.616049 -297.528764 21988.866587 22021.554321 21927.241717 21115.299333 20730.550351 20791.256662 19866.928062 19000.868802 18545.287630 18389.211953 17876.052915 17031.787408 16361.891920 14839.088145 11842.389540 9561.480695 8491.883615 6803.406608 5258.961552 4313.218479 4678.694475 5376.598193 4507.968230 3190.366599 2496.893714 1697.227275 726.787012 -27.314278 -905.409616 -1807.532455 -2355.964337 -2644.814466 -2754.517045 -2744.569344 -2658.610339 -2527.117328 -2370.510570 -2202.059674 -2030.207263 -1860.244251 -1695.439975 -1537.772421 -1388.387699 -1247.885848 -1116.499261 -994.205976 -880.802381 -775.945849 -679.160420 -589.754525 -506.499579 -425.320147 -350.343336 -311.004685 -293.545866 -287.585939 -306.284020 -288.241167 -280.725884 -265.270659 -258.821962 -255.108046 -225.307759 -223.756844 -222.304914 -192.931283 -192.515032 -192.007390 -165.106383 -165.019378 -164.823904 -140.949477 -140.956276 -140.863039 -119.949474 -119.981103 -119.923029 -101.731594 -101.767469 -101.723504 -85.978257 -86.012384 -85.975783 -72.405769 -72.436583 -72.405012 -60.756822 -60.784098 -60.756591 -50.797668 -50.821582 -50.797597 -42.316606 -42.337442 -42.316584 -35.122781 -35.140844 -35.122775 -29.045013 -29.060599 -29.045011 -23.930577 -23.943963 -23.930576 -19.643936 -19.655383 -19.643936 -16.065452 -16.075196 -16.065452 -13.090076 -13.098335 -13.090076 -10.626059 -10.633026 -10.626059 -8.593682 -8.599535 -8.593682 -6.924043 -6.928938 -6.924043 -5.557893 -5.561969 -5.557893 -4.444545 -4.447923 -4.444545 -3.540850 -3.543639 -3.540850 -2.810269 -2.812560 -2.810269 -2.222004 -2.223879 -2.222004 -1.750231 -1.751758 -1.750231 -1.373397 -1.374636 -1.373397 -1.073603 -1.074604 -1.073603 -0.836056 -0.836860 -0.836056 -0.648586 -0.649230 -0.648586 -0.501230 -0.501743 -0.501230 -0.385870 -0.386278 -0.385870 -0.295921 -0.296243 -0.295921 -0.226068 -0.226322 -0.226068 -0.172039 -0.172238 -0.172039 -0.130418 -0.130573 -0.130418 -0.098485 -0.098605 -0.098485 -0.074082 -0.074175 -0.074082 -0.055510 -0.055581 -0.055510 -0.041431 -0.041486 -0.041431 -0.030802 -0.030844 -0.030802 -0.022809 -0.022841 -0.022809 -0.016821 -0.016845 -0.016821 -0.012351 -0.012369 -0.012351 -0.009025 -0.009039 -0.009025 -0.006555 -0.006565 -0.006555 -0.004720 -0.004727 -0.004720 -0.003350 -0.003355 -0.003350 -0.002311 -0.002315 -0.002311 -0.001499 -0.001501 -0.001499 -0.000824 -0.000825 -0.000824 -0.000207 -0.000207 -0.000207 0.000431 0.000432 0.000431 0.001175 0.001178 0.001175 0.002127 0.002133 0.002127 0.003416 0.003424 0.003416 0.005209 0.005221 0.005209 0.007727 0.007743 0.007727 0.011263 0.011285 0.011263 0.016203 0.016234 0.016203 0.023052 0.023093 0.023052 0.032459 0.032513 0.032459 0.045250 0.045321 0.045250 0.062456 0.062547 0.062456 0.085341 0.085457 0.085341 0.115421 0.115565 0.115421 0.154466 0.154644 0.154466 0.204483 0.204696 0.204483 0.267652 0.267903 0.267652 0.346214 0.346500 0.346214 0.442279 0.442594 0.442279 0.557531 0.557862 0.557531 0.692799 0.693123 0.692799 0.847463 0.847745 0.847463 1.018647 1.018834 1.018647 1.200163 1.200181 1.200163 1.381167 1.380914 1.381167 1.544478 1.543820 1.544478 1.664534 1.663298 1.664534 1.704952 1.702916 1.704952 1.615683 1.612575 1.615683 1.329769 1.325257 1.329769 0.759735 0.753422 0.759735 -0.206338 -0.214915 -0.206337 -1.708946 -1.720319 -1.708942 -3.921393 -3.936162 -3.921380 -7.053947 -7.072767 -7.053903 -11.357715 -11.381274 -11.357571 -17.128031 -17.156981 -17.127561 -24.707128 -24.741892 -24.705592 -34.486004 -34.526169 -34.480986 -46.905794 -46.948183 -46.889408 -62.460432 -62.492823 -62.406933 -81.707136 -81.687584 -81.532495 -105.307724 -105.094552 -104.737660 -134.175346 -133.282489 -132.316336 -170.161499 -166.710100 -164.068705 -215.907255 -202.918889 -196.631119 -243.092251 -221.209045 -211.245244 9562.175773 9856.207444 10520.861944 9673.511199 8882.482423 8090.368305 8579.646274 7610.043296 5507.951063 4874.012375 3276.163491 1887.860224 1312.806604 1172.907342 854.509372 458.029198 47.824833 -337.739224 -685.244279 -995.138356 -1273.018842 -1524.677838 -1753.921920 -1962.126945 -2148.716952 -2311.975869 -2449.828295 -2560.424010 -2642.494394 -2695.516251 -2719.739301 -2716.129756 -2686.269505 -2632.236984 -2556.485203 -2461.725338 -2350.820019 -2226.688135 -2092.221786 -1950.215451 -1803.307131 -1653.931116 -1504.281907 -1356.288739 -1211.599958 -1071.575972 -937.287982 -809.514755 -688.713945 -574.886383 -467.140345 -360.166659 -269.828498 -232.267332 -215.971642 -209.558488 9413.465011 9550.103091 10265.142098 11184.178754 9156.119704 6921.251117 6837.855525 6297.165153 5154.962270 4286.621829 3224.044086 2301.062610 1693.548595 1283.619597 889.810327 468.656642 51.252641 -336.327140 -684.451373 -994.600082 -1272.615366 -1524.342165 -1753.604574 -1961.793823 -2148.349701 -2311.569682 -2449.388071 -2559.960397 -2642.020574 -2695.045706 -2719.284442 -2715.701202 -2685.875785 -2631.884490 -2556.178287 -2461.466486 -2350.610055 -2226.526445 -2092.106544 -1950.143843 -1803.275571 -1653.935466 -1504.317720 -1356.351612 -1211.686269 -1071.684927 -937.427974 -809.724016 -689.128673 -575.976838 -470.471651 -373.352753 -292.505422 -246.422943 -224.016029 -215.266808 9255.416319 9262.577118 9411.465616 9617.254052 8746.343850 7614.144867 6969.058254 6153.440596 5189.799443 4234.839592 3307.259546 2496.140418 1870.706434 1376.293130 923.291946 478.747451 53.597249 -336.212340 -684.856551 -995.045477 -1272.999078 -1524.674697 -1753.921876 -1962.127190 -2148.717088 -2311.975921 -2449.828311 -2560.424013 -2642.494394 -2695.516251 -2719.739301 -2716.129756 -2686.269505 -2632.236984 -2556.485203 -2461.725338 -2350.820020 -2226.688136 -2092.221790 -1950.215464 -1803.307174 -1653.931257 -1504.282369 -1356.290256 -1211.604928 -1071.592257 -937.341328 -809.689475 -689.285894 -576.761763 -473.210644 -381.497222 -307.584918 -258.114450 -230.817196 -219.669355 22054.498060 22395.650897 22814.793606 21599.761272 21454.131317 21969.673833 20606.303801 19364.580624 18205.897881 18457.518210 17442.323370 16762.876136 16817.917529 15660.796753 12190.711106 9723.759680 9716.640877 7290.788270 5135.427265 4370.749297 5457.571700 7352.014631 5451.650928 3209.555225 2937.817044 1829.573658 402.849142 88.484858 22166.446953 23063.833372 24131.514436 22507.466266 23041.385153 23868.373332 22378.149175 22458.614259 25297.774149 23291.014679 22149.027182 24463.438154 21652.972594 24495.405673 21839.021786 20444.804662 24047.643508 21677.674546 22242.519451 21293.782609 22607.630384 22204.895583 23053.195317 20502.225872 22760.415526 18431.872655 4183.972558 5481.358162 22135.356803 22281.053815 22539.031421 23854.048532 22759.096936 21512.270791 21084.583836 20172.074450 24008.926126 13833.367866 19939.459587 23537.149062 21594.831921 21267.509643 24055.953731 24700.379660 24703.469281 11121.795492 22479.238718 18631.957589 24302.355972 23195.842198 22437.948119 19929.032080 15370.417895 9936.942633 16060.099975 12768.745821 22083.811820 21487.426058 22508.576465 19394.911502 18270.214770 22842.308508 16276.074719 14178.217352 24025.541595 19825.125691 20523.150209 24513.723201 23895.106960 16915.157104 22053.525739 6054.733128 14561.575251 5193.427912 20302.297935 20976.230999 17069.798053 24298.181377 24485.851248 15134.921442 19118.842073 17241.545073 15073.463065 9005.875016 22221.620416 22187.197377 24627.120554 19011.678697 19180.827123 20445.004002 23369.377378 24485.845566 25067.466231 20835.480897 23750.299230 10846.416380 13496.051985 12581.841419 16526.670192 19546.225669 18185.991572 21829.485590 18773.595591 21828.831409 14359.132595 23743.353396 12915.190244 7750.477569 2482.759024 6600.004423 14122.491141 5220.500447 22542.819273 23836.115670 27254.680415 26026.102945 19918.045544 15592.923083 24145.971051 21258.037354 23884.106537 13890.534313 9258.293414 17941.899401 11987.303700 14723.742992 12714.576231 17510.433021 9776.245087 6419.214143 6221.926814 1768.415086 14612.720875 8835.169812 23651.250754 10854.096932 14649.547227 13340.209719 4241.749960 6301.952256 22953.684387 23834.644928 25950.191211 25313.720247 20927.940420 13122.108198 24256.801616 12374.358583 19746.211515 16671.459653 19927.535082 21470.850123 15334.305720 9967.567834 13051.253675 12502.555195 14339.773960 6683.262773 16727.462196 16028.415717 20294.398737 7628.294556 5433.379512 7158.481258 6238.340659 3670.259407 2230.385184 971.197711 23303.557089 23322.191607 24094.956497 17513.213384 24742.498484 24529.971471 19767.453452 8503.249224 20635.473325 6584.143189 8924.060946 13030.764845 19225.688143 17081.172248 18810.870043 15823.370409 6100.435884 16480.549773 12422.665001 8330.173647 8164.930756 18341.183857 5410.729892 16736.385387 20157.624522 8146.046901 6727.448535 2311.854724 23488.157334 23457.116275 23577.063716 22540.275701 20157.485523 23568.952758 19968.711062 22053.791581 25378.129128 21217.082869 21642.546670 20387.445045 18684.320993 11441.742778 8667.831805 22663.257314 13949.114249 16233.167510 3801.226998 5585.634384 9914.837869 8749.923223 5695.483072 10108.392925 13792.129269 2239.582213 11478.510739 72.260925 23655.287519 23228.645066 22103.440039 22457.415356 24836.459517 23663.313032 22683.859396 17239.346465 16496.107717 14358.784185 12075.707623 7511.723395 16736.735518 16902.977013 8709.109843 12563.686980 8633.891131 14512.548142 6624.123403 19620.191145 7136.392705 5006.741491 8910.414821 13998.896205 5760.635604 4090.606223 2989.957746 8822.475100 23856.546652 23682.612973 23045.336097 24913.226051 24931.849433 23136.235135 16497.375145 23987.552514 7439.108265 22189.985296 12722.294367 17117.436252 8484.994350 5758.579786 14755.286153 11266.512022 8854.517973 12537.196098 13333.054496 10624.309750 11190.514901 4614.657527 9838.750980 9694.036469 4803.732807 11632.990904 9494.853187 7503.117106 23622.793929 22965.748765 22066.765528 23214.407124 20858.963501 24268.242452 20104.280160 22951.259646 15235.638744 14453.542435 10338.087499 14239.377541 16505.267234 16916.667618 9329.101466 12773.609149 15805.872714 7217.354733 3191.044627 4801.351692 12498.188893 15290.923877 5252.347173 12443.823533 5328.336117 7867.352680 3424.000644 3808.127635 23034.891414 22187.162343 21998.542003 24085.743616 24259.323114 17970.911930 18689.642337 19819.842808 12907.873354 17405.892112 14619.520685 15685.469277 16863.976861 5598.216407 12263.470751 1720.714450 11620.917628 9115.763090 7742.573339 17199.258582 10378.143342 6948.701328 12228.199159 10759.775933 8369.857464 1023.189818 5855.272703 8617.408525 22805.866839 22755.704579 23936.499762 22902.720618 21210.074587 21006.398612 22839.629980 20249.229288 16928.073745 20989.148060 12969.292896 10203.246779 2703.639745 3715.429210 6654.769710 6790.998830 12834.542837 9650.320019 6551.913892 4004.017995 4846.504049 5372.286880 329.393241 12921.397195 5805.605984 4044.900536 12491.491635 3441.805490 23242.956663 24012.220828 25382.966766 21816.171992 20811.272571 24207.479906 21752.725707 21855.845687 21171.803621 14587.907945 10773.030100 8294.234018 7626.359472 -891.570029 4112.337357 3044.529070 5084.767308 4836.774449 4368.789691 5492.318776 5390.246775 6286.577556 1110.079438 4463.947302 9263.205094 3134.973606 1377.258568 1269.246795 23748.376640 24649.256699 24330.542045 20750.052486 24153.927478 19569.821743 20112.587514 18516.593268 13844.281842 13195.094786 11487.460785 1944.183672 3110.437843 23750.923389 24522.999404 23822.189576 20848.647811 21253.792286 19526.342966 20034.590658 16987.990867 17795.519310 8991.066933 3159.993605 9969.182448 2706.994033 23370.481811 22959.437543 22391.366424 21757.713888 17267.933085 14066.144733 6188.659936 17378.361834 10058.992026 7001.044356 7667.851479 8449.547620 8734.079297 22952.406033 21910.534734 20712.136313 19222.379852 19513.206991 18481.208214 15035.669709 14788.070169 7260.411321 9031.214868 8417.790499 1505.438461 5671.867880 22579.725559 22138.694114 21503.703585 21047.246560 18451.331858 16341.718256 13220.558012 10958.193620 6400.623047 8980.310602 12344.694601 5862.748126 3883.099263 22034.136717 21852.074059 22244.653162 19352.766526 19910.080651 19160.368442 12065.865713 15271.601179 5451.540407 5123.199767 11317.030880 3297.545099 5758.399061 21344.084295 21103.327002 21243.533600 21900.860214 16669.063015 19765.871892 12429.652858 10467.177924 8292.106848 13773.897935 11101.620425 6856.034807 3606.873969 20888.926619 21023.624028 21682.534351 20084.579481 18956.259183 5182.492010 7664.565653 5298.751998 6361.118691 10768.261307 8519.202560 5271.920652 4901.979107 20695.213625 21496.026194 22908.010496 18538.809489 16304.533193 9142.957405 12977.059678 12782.370293 9587.601106 9971.863291 2717.380867 5084.322298 2734.120280 20476.196763 21323.214817 22787.381493 19545.243731 17530.345137 17677.833308 17018.508242 8875.076240 9694.339511 7146.538243 8975.480799 8135.363133 14156.249115 20208.522084 20615.460373 20942.759070 19237.071223 15090.679104 16179.332799 9915.671772 9758.654385 10621.696600 13997.950626 6991.050449 7073.517940 9031.258937 20105.845765 20450.981384 20481.227618 18084.811506 18890.457702 16602.847516 14294.478825 15238.976879 8283.270333 8628.611891 10898.398094 2783.571341 5611.023540 20071.567063 19987.797753 20395.270881 21145.690981 15498.286700 18512.638557 13652.997205 13808.990295 1224.515106 11925.302029 11467.799640 4923.220099 2613.935683 19919.050791 19396.080960 19107.586913 18824.171492 16613.337849 15013.942740 17930.138419 14538.843281 5680.362799 15915.315765 7834.820689 4032.640481 4778.964315 19716.812694 19405.420829 19887.968410 19397.239697 15910.749182 16336.100096 16282.171587 15178.349091 12299.283727 15079.363984 6040.745320 6338.742846 2098.923703 19523.366784 19314.871539 19690.612169 17040.242225 16888.877909 18075.194791 19416.530590 17954.539893 11971.788050 12640.315134 6772.366257 3287.727124 3276.365684 19337.115015 18544.499118 18246.071501 13708.511380 17307.554274 18228.352798 13515.418553 16250.884009 7902.046679 7443.659360 3979.017187 2371.858814 4522.162583 19166.056462 18328.763013 17671.249024 20553.067620 19476.758453 15751.380170 13984.350156 13496.932684 9329.405808 13755.292481 5113.308274 3627.561219 3149.313850 18960.036008 18288.584132 17254.628609 19034.043862 16840.724356 17517.166109 12311.906440 13460.735971 11811.930637 6717.666810 8404.911872 10157.733569 2853.921766 18828.590072 18595.566817 17816.000897 17809.315874 20086.035888 15942.302554 15877.075044 8365.581107 10038.620366 11557.550515 11583.853637 5765.916697 2382.998547 18713.763928 19039.669115 18842.857577 19365.889286 16742.412592 17416.114149 15091.254931 10161.748480 16011.406925 8642.764985 4127.350931 4729.258814 2857.349956 18438.311211 18726.886767 18489.289618 19302.179954 18173.531825 16590.586017 9170.598933 9491.139266 9906.419049 8519.173833 6725.788524 5839.842067 2752.141676 18095.264429 17939.658993 16998.315598 19672.102632 18874.765236 16239.655425 14454.074519 7892.397969 11664.059596 7579.271647 5041.086889 3686.487640 5535.014167 17659.180710 17081.764176 15844.005825 18545.446579 18576.071547 11135.491497 11278.797701 10985.777711 5605.668709 6888.827109 4509.816381 3713.273663 4330.145353 17060.102183 16838.387776 16725.251635 18497.935444 16982.155859 16034.901742 10993.949032 11802.334186 7177.700760 7593.445954 8397.363482 6017.014658 2430.154922 16600.689559 17126.111083 18259.792592 17557.521020 17999.786039 8556.552481 12013.391181 11228.085412 12551.184794 10285.542267 6177.766892 7951.449319 5390.788599 16591.671811 17396.678654 19430.020026 17500.912892 16929.181400 16228.308198 3260.436245 15353.280553 9069.491165 12568.415729 4963.752978 5270.931958 2113.182925 16751.459883 15882.251450 16050.709669 18254.496324 17222.442962 18000.607722 7188.018391 12877.673875 6943.293004 8318.856756 8087.814818 5620.250303 3320.534271 16806.324714 14722.883446 12944.373192 18693.398843 15740.349778 11261.293906 15794.990110 13562.884259 9723.272437 8247.736178 4864.905271 4569.757556 3114.551063 16909.323363 15746.507080 14722.255099 18151.011620 17568.854660 15048.209279 18404.397802 13108.589007 7244.132069 7920.321002 4829.736454 5757.772464 2619.130509 17023.767640 16669.346327 16518.992899 17268.737382 18072.239262 9113.960325 11670.577331 17140.913612 16831.039052 9035.369735 9293.334130 6679.383966 3185.188112 17053.128956 16468.868105 15912.566529 16413.782989 13747.166778 9897.522247 13888.040297 14835.503070 7267.558380 5255.255422 6676.719104 5374.982306 3684.128059 17016.680814 16862.659730 16685.777847 16677.130175 16994.377683 14765.827355 12219.232805 12544.564592 10959.520027 6394.742301 4859.848057 7537.989569 4691.967680 16877.654644 17731.213782 17620.004263 17594.228956 14510.875348 14067.063053 13219.318499 12649.763593 10211.627332 10825.349849 9507.403444 4846.764974 4623.460522 16684.571473 16697.513810 15367.465476 16872.187905 17958.906271 13544.852944 15489.335684 12161.744088 8321.140740 11250.939003 9142.020374 4372.400834 3694.040075 16446.266563 16388.512120 15602.913658 18221.404139 16181.149526 16922.629957 16322.557310 11289.384617 7283.439541 6199.465614 7235.525475 5094.961719 3063.789560 16123.875162 17131.446781 17824.642279 17870.687560 17782.813204 15589.083870 14095.910819 15007.409835 9412.635825 6288.142588 7808.033805 5376.539387 2297.492416 15906.948917 16575.795793 17717.878872 17178.116771 16895.267723 15550.380249 14307.510912 8124.953206 6075.348904 6571.176137 4238.974589 7018.035863 5113.951987 15990.179992 15973.328785 16259.239735 17154.694008 18443.548317 15361.435687 7522.799057 7987.591067 4275.836347 8839.994935 4345.199967 2977.940578 6601.564104 16117.044145 16078.728338 16379.171338 19115.673290 14938.168065 16339.478005 12676.336484 6863.427102 13498.286430 5217.772659 3271.348860 2296.838067 1602.213005 16038.998740 15613.431265 14861.486551 17675.258603 16977.985452 15176.742934 13875.699854 12826.408651 10079.306224 6287.604595 5908.231059 4556.969663 5743.313958 16016.395711 16204.174277 15984.634914 16906.914822 16573.719189 14640.957104 10548.348950 10229.259543 12223.640613 8935.884473 10135.543349 3952.268834 7515.680954 15960.029548 16865.469850 18003.856948 16435.146377 17789.540089 17661.954474 13699.910310 12970.747984 11802.750091 2111.741598 5224.328081 9749.016587 4549.870111 15765.221105 16061.146139 16221.110386 16216.854511 17067.874356 14874.050095 11429.104660 8202.618934 7153.239489 9285.279684 4078.402257 2451.640255 2829.745735 15646.088173 15630.378047 15585.289868 16768.218257 17576.459184 12828.606736 8740.582358 11540.863345 10770.054315 4819.273129 3625.367253 4600.251195 5452.917756 15615.445052 16015.365824 16991.075545 15542.475810 17899.784870 16471.532179 10194.583918 11222.388416 9997.114171 9413.647637 7644.658430 3853.158770 3783.960199 15574.413802 16339.364137 17308.603904 15463.760480 13588.015013 10938.649119 8344.897073 10604.352430 10588.940583 8972.941018 6529.474428 4876.854244 2569.253054 15536.940118 15951.163560 16501.192568 16987.795295 15185.366802 10822.273658 12984.171386 11423.476409 8845.929975 5640.073273 4282.428249 7250.418092 5821.823728 15464.070896 15015.183801 14917.462253 15990.992795 15001.511332 14853.641808 9068.526270 8903.373112 9880.140862 10594.471993 3737.153451 2905.973783 4767.145238 15360.107810 14677.217065 14525.996002 16227.247211 15518.407265 14001.694696 12810.789103 12743.527686 10128.735920 7823.296990 4402.350134 6335.952507 8962.103384 15316.223275 15452.355806 16038.612256 16458.455541 14310.708429 13400.711887 12817.706612 11637.814928 4393.391016 5307.166678 7060.831482 5991.293158 8400.750724 15371.075708 15591.481943 16017.668210 13903.180860 15492.489007 12778.878709 11287.827142 9632.012658 11565.904354 8308.798229 6525.991535 5782.642903 6061.978597 15489.940442 15592.356466 15745.196235 16038.461868 13606.981493 14248.760032 14002.602309 11962.632083 9717.211434 8311.016944 8698.060929 7258.218717 4150.872100 15477.894002 15737.287690 15804.695419 15288.173068 15939.652723 14334.294072 7015.752808 11938.340147 9781.795890 5239.306104 9299.453860 3177.995920 6666.119178 15180.129544 15445.419762 16028.135675 17115.162676 16656.782705 15026.335889 10742.285117 13163.042197 12179.514990 7203.690162 8818.883086 4605.060476 6504.128202 14722.120731 15140.776208 15976.973140 15641.622226 12951.254469 14336.922582 13162.177657 10538.432118 6024.259034 9009.201165 6523.895031 11313.840244 5874.562771 14377.664225 14520.578052 14634.697209 16696.224919 14436.195312 13583.027676 11100.895003 12823.231494 8561.119125 8560.784133 9952.291886 7643.043894 4945.224507 14298.637457 14303.089255 14339.664823 15590.580509 15533.872332 13302.213326 13414.475656 9251.150127 8557.069940 5770.357527 6158.519439 6588.291111 8205.840865 14382.332853 14704.323317 14674.254887 14351.769579 14643.551968 14168.071285 7418.780144 10628.350394 4516.639190 5126.345634 4509.073587 9251.025162 5644.617997 14460.710911 15093.917607 15754.330083 14866.254722 13984.635878 13635.207386 13188.106989 7114.257898 11953.140943 8930.976153 6881.483889 7604.138869 4736.388052 14249.584151 14391.751551 14679.095958 16101.728533 13744.660379 11217.503765 9693.258686 12554.800190 12494.466564 9493.242497 4951.851021 5440.812871 686.059476 13821.031866 13601.874361 13556.399095 14665.630463 14483.619700 16395.252425 11942.124208 7739.361430 9479.337548 10161.815638 6312.565423 5569.538898 4189.369116 13462.916048 13592.888798 14382.347033 15852.829450 14317.520074 13574.307596 12463.848258 11528.327883 10553.549787 8100.514097 8311.461729 4745.352016 7895.341667 13237.121020 13638.454149 14098.587177 13615.709544 14340.303349 10994.005386 10758.006305 11012.651093 8816.691740 11291.119851 9288.358714 7024.751379 7251.933860 13107.539403 12997.665684 12365.019716 16049.331497 12740.450268 12519.456289 13824.239143 12261.643971 10755.302396 10791.365391 8630.944955 8181.858274 9553.247399 12962.995174 13038.408526 12263.243516 13923.414383 14555.578887 15482.139912 12464.132984 13119.958289 7881.791885 12331.755514 10343.743054 7368.104692 2233.660165 12659.891813 13217.867030 13763.805707 15490.721303 11241.730705 13532.108925 10020.840046 10701.519446 9695.501686 9200.907726 8098.142772 7678.211810 5024.761112 12250.671134 12828.996648 14014.317255 15690.973523 14792.975970 13468.998538 15104.428604 13519.859285 9239.242023 8520.574074 9466.097880 7634.335548 2238.481285 11894.461111 11632.234951 12271.773546 15725.112485 13495.565862 14056.219804 8843.149404 10481.222566 8104.314597 10683.195637 10259.689101 7248.908525 7145.243511 11625.343987 10461.190014 10854.994590 14914.914789 13454.701974 13144.863057 8730.779187 9017.330880 8219.623396 10999.090039 6748.286944 11244.588187 5035.002526 11470.276600 9873.926086 8941.348907 15442.157637 12347.254884 11198.410715 11184.591362 10077.650151 12071.359631 9378.887643 2095.194116 4765.909699 2590.333828 11606.888174 10531.935618 10064.192142 15108.084661 14749.047988 11582.342396 11202.672193 11693.062106 8767.429698 8749.398866 9485.762215 11107.459383 6429.974575 11943.453705 11499.439410 11551.679941 12521.417475 11364.919982 11181.542261 10278.436177 9434.632135 7565.845330 2953.971953 7119.648904 7968.271917 3627.089640 12071.085879 12005.138006 11204.319167 12662.049712 15123.779219 11948.289459 5510.065111 9660.362447 6029.830894 1914.195122 12016.162561 9720.903421 5269.699562 11798.425694 11870.796582 10825.984702 15629.524678 9848.088405 9280.561167 10590.310253 7159.422770 7200.673182 5829.223961 6912.369269 8511.918764 8393.057272 11349.685484 12225.220407 13424.221106 10227.519546 9958.929597 10781.391995 8265.459000 9440.519860 7794.318046 9275.501653 3909.032906 1612.633596 5046.818798 10973.828503 12024.439021 13207.527533 8098.842872 10083.628854 11049.978065 11456.047613 5798.804338 12168.425870 5824.279976 4729.828484 5755.352955 1878.117224 10709.733044 11662.503729 12715.933567 12882.980603 9881.250182 10554.685717 7156.493038 9767.082327 8466.290320 7363.481516 8443.222940 4510.045158 7298.033140 10491.153226 10093.042883 9405.738326 11337.600203 10162.070378 10618.603370 8189.901106 7647.704832 9276.697591 7863.444639 5811.920035 5539.063885 2816.249056 10448.914826 8425.028554 6545.720899 14333.799914 9774.371217 9609.274561 8564.749877 7822.864711 8713.404516 3202.865652 9295.037121 9013.162750 3696.808730 10504.786643 9550.476369 9160.122247 9438.755742 10494.463806 8796.008951 10198.992367 9220.431712 10229.913978 9826.721193 9217.959588 10291.850841 7543.971491 10518.148318 11408.368807 12371.460246 7988.584532 7736.350705 9445.381017 10605.227776 11867.906107 8250.601657 9582.988853 10846.788806 7362.755050 2795.326950 10289.615367 10324.106616 10803.911945 10098.678409 6541.687920 9725.219184 11484.139148 7518.520865 10263.858159 11850.138344 10779.943999 8815.738654 5380.759654 9944.386957 9733.786988 10171.489794 12246.165988 12514.992253 9283.807949 10508.728544 13352.416998 11561.148585 6578.578913 9776.795844 8971.898955 12487.706723 9698.221860 10257.807505 11067.356776 5811.947093 8098.516067 11228.451218 9010.696531 6107.839584 11414.126739 7781.127592 16390.439880 12518.413662 10103.519827 9562.175773 9856.207444 10520.861944 12091.699445 14021.271705 13090.043319 12506.776578 13415.744137 15125.659147 12530.293208 9539.651560 12024.815291 9240.860389
</DataArray>
<DataArray type="Float64" Name="Velocity" NumberOfComponents="3" format="ascii">