<VTKFile type="PolyData">
<PolyData>
<Piece NumberOfPoints="2177" NumberOfVerts="2177" NumberOfLines="0" NumberOfStrips="0" NumberOfPolys="0">
<PointData>
<DataArray type="Float64" Name="Pressure" format="ascii">
 12146.666664 12130.146027 12039.633201 11768.354324 11223.934757 10457.233827 9568.466957 8588.714825 7514.659528 6295.024497 4841.607301 3170.335569 1504.907872 164.076063 -723.428020 -1276.593068 -1716.962613 -2339.831600 -3341.425895 -4421.049933 -5144.357228 -5457.523807 -5490.472492 -5383.260620 -5218.869558 -5024.433192 -4803.546204 -4551.511471 -4263.781562 -3949.099478 -3627.290562 -3313.443822 -3015.083874 -2735.428354 -2475.498196 -2235.133932 -2013.516313 -1809.488039 -1621.772624 -1449.119034 -1290.384601 -1144.568296 -1010.808199 -888.357222 -776.549343 -674.765761 -582.407782 -498.882422 -423.611441 -356.094179 -296.113130 -244.213028 -202.254127 -172.429481 -154.717336 -147.127631 12326.105423 12383.165141 12471.451430 12378.402674 11798.834646 10921.515366 10000.986668 8984.230569 7926.746916 6772.629789 5256.035499 3321.279603 1304.469854 -151.276848 -916.456420 -1267.365672 -1476.155404 -1807.749931 -2952.203246 -4657.652571 -5422.563384 -5603.699270 -5562.404862 -5417.122377 -5235.287124 -5036.774945 -4821.736495 -4581.380301 -4291.142170 -3961.924187 -3632.176628 -3315.276685 -3015.911598 -2735.930993 -2475.887523 -2235.472564 -2013.822207 -1809.767040 -1622.027976 -1449.353702 -1290.601504 -1144.770045 -1010.996840 -888.534056 -776.714678 -674.918158 -582.541357 -498.977740 -423.605948 -355.791756 -294.930169 -241.005265 -196.112179 -166.171221 -149.942118 -143.505831 12583.118725 12731.645217 13234.152932 13552.627499 12713.848737 11578.770579 10775.218833 9459.726498 8405.057489 7608.998097 5954.849143 3428.515715 635.577864 -972.273724 -1250.783182 -1260.383198 -1055.207229 -609.063956 -2343.922096 -5373.076096 -5914.361907 -5793.905708 -5648.897936 -5456.567652 -5254.482560 -5051.954675 -4848.155048 -4641.707830 -4356.263709 -3981.207247 -3637.181460 -3316.541254 -3016.050610 -2735.729914 -2475.592172 -2235.163195 -2013.525419 -1809.490870 -1621.773503 -1449.119302 -1290.384667 -1144.568259 -1010.807998 -888.356539 -776.547087 -674.758339 -582.383383 -498.802226 -423.347982 -355.227621 -293.290849 -234.428406 -181.409269 -153.988612 -141.794212 -137.486843 -151.361206 -138.882396 -133.548170 -125.292248 -120.871934 -118.241457 -101.136029 -100.071631 -99.058877 -82.556633 -82.273390 -81.919543 -67.337471 -67.279126 -67.143297 -54.738898 -54.743390 -54.679670 -44.302879 -44.323034 -44.284818 -35.686419 -35.708408 -35.680912 -28.605168 -28.625167 -28.603490 -22.815362 -22.832547 -22.814850 -18.106527 -18.120958 -18.106371 -14.297368 -14.309342 -14.297320 -11.232595 -11.242449 -11.232580 -8.780063 -8.788118 -8.780059 -6.828093 -6.834637 -6.828092 -5.282950 -5.288234 -5.282950 -4.066493 -4.070734 -4.066493 -3.114020 -3.117403 -3.114020 -2.372315 -2.374998 -2.372315 -1.797898 -1.800013 -1.797898 -1.355476 -1.357134 -1.355476 -1.016589 -1.017881 -1.016589 -0.758436 -0.759437 -0.758436 -0.562868 -0.563639 -0.562868 -0.415530 -0.416119 -0.415530 -0.305140 -0.305589 -0.305140 -0.222892 -0.223232 -0.222892 -0.161950 -0.162206 -0.161950 -0.117046 -0.117237 -0.117046 -0.084143 -0.084285 -0.084143 -0.060167 -0.060272 -0.060167 -0.042793 -0.042870 -0.042793 -0.030274 -0.030330 -0.030274 -0.021303 -0.021344 -0.021303 -0.014910 -0.014939 -0.014910 -0.010380 -0.010401 -0.010380 -0.007187 -0.007202 -0.007187 -0.004950 -0.004960 -0.004950 -0.003391 -0.003398 -0.003391 -0.002310 -0.002316 -0.002310 -0.001566 -0.001569 -0.001566 -0.001055 -0.001058 -0.001055 -0.000708 -0.000709 -0.000708 -0.000472 -0.000473 -0.000472 -0.000313 -0.000314 -0.000313 -0.000206 -0.000207 -0.000206 -0.000135 -0.000136 -0.000135 -0.000088 -0.000089 -0.000088 -0.000057 -0.000058 -0.000057 -0.000037 -0.000037 -0.000037 -0.000024 -0.000024 -0.000024 -0.000015 -0.000015 -0.000015 -0.000010 -0.000010 -0.000010 -0.000006 -0.000006 -0.000006 -0.000004 -0.000004 -0.000004 -0.000003 -0.000003 -0.000003 -0.000002 -0.000002 -0.000002 -0.000002 -0.000002 -0.000002 -0.000003 -0.000003 -0.000003 -0.000003 -0.000003 -0.000003 -0.000004 -0.000004 -0.000004 -0.000006 -0.000006 -0.000006 -0.000007 -0.000007 -0.000007 -0.000007 -0.000007 -0.000007 -0.000004 -0.000004 -0.000004 0.000008 0.000008 0.000008 0.000039 0.000039 0.000039 0.000108 0.000109 0.000108 0.000253 0.000255 0.000253 0.000544 0.000548 0.000544 0.001103 0.001110 0.001103 0.002145 0.002158 0.002145 0.004036 0.004058 0.004036 0.007384 0.007421 0.007384 0.013181 0.013243 0.013181 0.023006 0.023106 0.023006 0.039316 0.039475 0.039316 0.065852 0.066097 0.065852 0.108166 0.108539 0.108166 0.174306 0.174860 0.174306 0.275631 0.276434 0.275631 0.427729 0.428865 0.427729 0.651360 0.652929 0.651360 0.973255 0.975363 0.973255 1.426538 1.429289 1.426538 2.050424 2.053899 2.050424 2.888738 2.892971 2.888739 3.986703 3.991641 3.986708 5.385381 5.390836 5.385398 7.113140 7.118742 7.113199 9.173629 9.178786 9.173830 11.529893 11.533812 11.530573 14.084571 14.086478 14.086860 16.656331 16.656372 16.664023 18.952550 18.954925 18.978349 20.536281 20.559889 20.622677 20.777360 20.892374 21.066317 18.748301 19.205642 19.712624 12.870925 14.630710 16.103044 0.292720 7.077147 10.721786 -9.814020 2.218875 7.844716 10933.997752 9789.732564 7315.492400 5597.974352 6559.528385 8193.149630 5403.348185 6018.910417 4809.519585 5689.803831 3602.429770 891.243357 900.911514 -145.553684 -610.510834 -822.314052 -981.036557 -1186.334771 -1468.879989 -1816.864339 -2200.358273 -2588.176266 -2955.344700 -3284.108015 -3562.368063 -3782.032422 -3938.110798 -4028.444289 -4053.668749 -4017.094350 -3924.364058 -3782.900163 -3601.226165 -3388.273024 -3152.765557 -2902.754263 -2645.321525 -2386.457258 -2131.072972 -1883.108317 -1645.680954 -1421.237197 -1211.673792 -1018.416438 -842.454629 -684.342692 -544.181981 -421.598066 -315.716001 -225.100485 -147.562834 -78.237245 -24.803228 -3.859096 5.119802 8.914515 11142.519692 10197.202999 7228.529814 2913.729042 3439.795399 5795.207696 4113.978592 4931.768355 5308.462488 4866.917653 3148.186744 1297.489547 396.973782 -234.995572 -618.106204 -818.560624 -978.377954 -1185.480745 -1468.856302 -1816.936283 -2200.215842 -2587.764460 -2954.702529 -3283.288810 -3561.418739 -3780.996500 -3937.033827 -4027.374508 -4052.653533 -4016.175167 -3923.572214 -3782.254506 -3600.732950 -3387.927572 -3152.555065 -2902.661049 -2645.326095 -2386.540730 -2131.218632 -1883.302288 -1645.912126 -1421.496662 -1211.954078 -1018.710813 -842.756787 -684.647360 -544.487983 -421.918904 -316.115275 -225.816674 -149.415169 -85.389211 -36.221347 -9.708321 2.851300 7.870991 11465.377555 10866.034846 9243.979424 6871.048972 6129.835254 6396.266422 6077.339041 6176.755742 5828.543224 4692.270870 3008.021114 1420.219453 350.947448 -280.558066 -624.962864 -814.848570 -973.535510 -1181.734456 -1466.515209 -1815.774823 -2199.893685 -2587.988078 -2955.270194 -3284.078117 -3562.355358 -3782.026477 -3938.107694 -4028.442513 -4053.667668 -4017.093670 -3924.363624 -3782.899883 -3601.225985 -3388.272908 -3152.765483 -2902.754216 -2645.321495 -2386.457240 -2131.072962 -1883.108314 -1645.680966 -1421.237251 -1211.673984 -1018.417091 -842.456841 -684.350150 -544.207080 -421.682369 -315.998574 -226.048207 -150.691443 -89.539959 -43.741843 -14.709168 0.770557 7.057536 12706.173554 12911.406627 13541.167396 13853.693299 12726.626906 11659.675552 11560.323797 9613.594604 8412.717869 8082.147602 6548.519165 3736.442317 711.080095 -1277.586412 -1429.188341 -1262.400768 -909.684769 -530.146910 -3108.424929 -6204.776187 -6144.510259 -5848.882611 -5673.811264 -5467.527994 -5259.781634 -5056.340808 -4857.513058 -4673.590018 13033.940560 13171.127723 13056.940226 13489.079316 14242.077054 14381.479188 14375.567352 12339.454560 14599.785077 14252.292643 11339.776923 13062.708855 12523.976797 11796.419701 12703.524665 11627.264724 13124.067269 11825.935188 12878.132787 16651.092534 12466.723140 12663.984484 12716.696322 12956.249757 16794.592510 11855.059216 5818.635604 -1076.551291 13626.442173 13727.083027 13192.070682 14503.530531 12091.666830 10948.365888 11885.585433 12309.646958 16659.021194 9904.155979 15151.217643 14245.575475 10550.248359 14778.847672 13440.113751 14361.727829 13163.154065 8389.153806 13466.257409 11245.800556 11732.782244 11290.711431 14670.966642 11423.801248 10189.113581 5022.590818 6900.191616 6758.783723 14168.425612 13356.738152 11058.974219 12216.823499 11099.353188 10339.159339 10675.341228 7350.223172 15513.540595 11508.825401 13521.654794 16392.268658 12451.626438 9656.489604 15948.616167 3910.816607 8800.107069 4738.448551 11192.785801 15352.528045 11555.485481 12439.886215 14487.755221 7794.315586 10016.490871 11396.053167 8191.379392 4381.886570 14348.571445 13632.238748 11335.836471 11521.137258 11798.789128 12313.967019 14693.859085 16249.618793 16303.366283 15582.814774 12334.128876 7260.233167 9551.394759 7657.533427 11806.558516 8878.998166 9588.528811 14119.773228 9488.287741 12644.106275 8586.284603 11738.899937 7970.679261 6491.134084 2377.627252 8370.857313 8151.604485 448.455631 14181.370145 15315.339864 16736.987672 16579.918111 16509.871860 11414.297377 15179.158577 16346.489598 16380.873096 7332.192607 4548.334852 8946.849421 8339.752790 6146.891879 10470.647682 9345.759725 7321.917175 6120.778603 4369.226647 4177.732001 7642.075673 5763.572063 11561.441703 7369.495065 10294.883211 6140.811162 5668.516958 908.299052 13871.893095 14393.417915 15776.491878 15902.377752 13277.337206 9937.566306 15788.693797 8276.049609 13225.845719 12229.242518 12174.031091 15314.274307 10956.080575 5969.584574 8669.859415 7993.183848 11766.783713 2578.670160 11725.784213 7783.829301 8494.055201 4234.427645 3875.403406 8209.763624 6378.558887 7148.462398 5338.711328 4760.328644 13863.761379 13627.935621 14549.454298 12760.218854 15226.653915 14049.041350 14000.506924 7819.276262 12299.600426 5739.825959 7030.346924 8739.992492 12889.568820 11942.318399 14098.318094 13052.857524 5183.789347 9816.909792 10626.137749 4513.990438 6361.773862 10154.999900 2677.514613 8438.155337 7174.308624 7643.785270 4265.119566 2935.702088 14176.010039 14774.705228 15625.421380 14993.227941 13523.229744 16436.739660 14556.683324 16903.144090 18012.038993 13696.030585 14953.264451 14198.460916 9981.649956 10533.869709 6950.812818 15490.108955 9574.282850 10817.445782 3831.853129 4937.284551 9065.209926 4823.008986 4697.213140 7066.583884 8975.555378 2939.135192 7105.496997 4092.617020 14445.474620 15371.782237 16383.843360 16589.724949 17039.662618 16938.237230 15894.677765 12980.510583 11715.562202 10155.686933 8252.817765 5233.343302 10723.955831 11148.091972 4965.047132 7255.254860 5408.120284 9467.025418 6904.898771 12852.966370 4815.762042 1830.491478 5293.687865 7628.662368 1755.058029 5786.124005 3525.480118 8485.672701 14531.229685 14469.663230 15105.360759 16775.447876 15600.473116 15066.175317 10547.643735 16771.964704 4428.652431 16898.966125 6573.944262 13986.541291 6117.493384 3945.045422 10131.069094 8401.608728 5988.325921 8868.071762 7352.139735 7818.103354 6657.419117 1099.721341 6798.793268 5641.805539 3212.821256 6515.844304 6208.950016 5647.959382 14684.715067 14254.215616 14324.067257 17970.401344 12973.248426 16561.540956 13790.667935 14320.961340 9993.200788 9701.917799 4969.552468 12896.614442 10658.836374 14908.955892 10579.128818 10807.199919 14208.577591 3849.684755 2786.625152 2987.120599 8000.517409 13071.934319 1668.270177 7634.489302 4069.025634 4181.984065 2550.959949 2199.203145 15076.569826 14394.271852 14320.223690 15722.618414 18175.034623 12525.682679 13735.897250 14730.363944 8488.834343 13091.821410 11900.845245 12689.176083 14174.273599 2818.808672 10181.508212 1215.547902 7199.495083 3220.731683 4165.888035 13919.346253 10394.793413 7888.352804 11368.720778 7979.819204 2580.143820 821.591693 3415.201781 4289.913950 15622.783058 14713.882252 13950.252749 18477.752603 17508.402271 17484.264396 18041.635014 14673.357515 10464.578535 16369.962449 12021.266614 6845.993842 3637.448389 914.069830 1930.228319 6538.961301 6783.276537 5049.034338 5317.025843 4425.674690 3739.199712 4274.602015 2659.692107 8428.503420 1933.741039 1920.951702 5354.055562 2587.149260 16029.433763 15580.239827 15080.154019 17611.653792 18125.275819 18445.392819 17910.523293 16019.829740 15415.540375 16130.956600 7344.354310 6436.754653 3316.384595 4227.028592 2244.918029 5826.847358 2943.260312 5219.351908 3699.243722 4803.108592 6737.965513 -74.753598 2106.894803 4031.309259 3361.032545 3171.009867 2359.388535 2007.605742 16213.214380 16670.571056 16546.166808 17306.210078 17996.607459 16977.541565 18194.985998 17385.148037 15362.052930 10889.528838 6804.199703 866.662452 1276.973496 16484.078364 17576.958377 17818.468073 19500.350069 16387.743423 19516.782722 16729.661333 16202.222835 16064.769173 5596.167687 3540.278046 1462.166309 1727.883362 16913.074273 17753.766854 17841.779736 17806.506386 14095.961002 12108.295750 7202.104531 15368.551894 5829.719638 4706.521444 9071.301580 5303.064163 8263.254667 17140.432285 17426.580505 17565.250473 19314.083456 20216.957507 18217.308246 14625.398291 12055.541770 6084.887703 7287.228760 6323.245216 1376.224253 5701.692804 16918.191093 16526.200553 16305.595007 20171.949952 15633.674171 15294.748530 14646.561950 7445.372123 3918.224801 7615.302988 14075.820075 3564.760431 1602.931921 16673.009926 15779.382365 15009.453064 21779.612614 21821.933431 17483.129727 10900.851261 17565.708261 2819.219601 5934.939319 10939.245131 6129.381974 2112.013188 16870.649372 16794.194220 16991.117550 20347.316008 18725.694681 18905.049461 10940.341119 9958.720784 9341.758522 10382.804168 9826.823054 4119.631724 2273.545884 17258.893114 17241.423963 16534.438108 20160.920572 18645.541953 5676.275912 5894.364412 5629.050317 3840.217171 13219.533646 8152.878771 4928.359298 1184.882948 17658.166225 17095.286773 15924.055398 18069.189481 17732.772738 8804.201037 13249.713867 14521.937032 11708.095109 7971.852330 7178.407098 3410.035151 2565.286971 18155.282850 17772.289885 17161.217694 22152.322043 16950.607987 15763.091820 17585.029743 11797.901431 9877.446195 7207.682291 8563.323519 7265.208604 14214.549720 18729.597154 18614.917148 18232.269367 22068.870646 18474.876432 18854.258276 11262.488939 12617.490866 9476.535600 15270.382907 7360.524871 10288.491134 5967.931203 19175.350796 18969.080169 19227.435014 23048.292560 22596.356651 15635.530620 12588.908650 14967.463318 9703.075983 10729.584447 12629.899362 2067.711211 4632.218654 19194.339535 18212.653061 17802.759494 21758.814951 19024.386044 18922.204981 18025.711523 16066.699926 6344.611258 11547.463896 11640.386932 3459.443648 2098.994939 18980.670721 18193.980429 17959.369812 20836.522993 15720.919440 13743.237353 18532.244254 17456.942216 7813.876660 18283.239520 4355.432802 7316.173779 4007.383987 18865.586157 18166.290629 17566.514254 21010.813754 17437.883632 18586.578401 23317.694632 20810.588834 14545.904665 18763.825383 4309.817920 6057.706689 4748.594634 19113.980764 18598.073029 17657.328144 21701.433290 20606.555419 21018.286118 21543.332387 18942.713787 16457.878189 16124.756207 6590.213843 2568.359306 3177.715726 19646.970967 20007.845657 20648.730860 16624.312902 21685.298378 21799.186625 16362.356614 19656.696826 6528.684507 7386.181230 4269.999701 2893.820326 5026.540382 19873.126103 19960.720550 20218.974857 22086.783244 25419.867108 17918.389694 15238.582435 12740.978650 14910.488887 17182.601446 5819.540420 3358.901548 5225.631885 19777.898589 19689.336774 19534.895126 20345.899654 24582.965655 21568.224638 16936.975490 10939.720236 15524.987069 4820.215316 8081.943421 11093.397448 4768.708645 19720.613118 19666.365929 19246.773825 22242.796537 21210.653554 20025.983089 21172.910429 10472.268461 9231.614401 15372.085028 15141.243414 6493.939242 3814.746875 19626.150644 19032.140502 19156.325954 22868.521030 21005.140260 19600.093500 18463.537758 7642.626813 18458.282914 10253.450129 4885.823936 4459.563446 4818.872479 19484.364667 19710.277383 20785.606056 23990.842344 20416.525662 20307.934990 14296.216688 13360.466645 10546.081164 5526.687929 6057.774322 5226.276603 3110.472588 19170.906193 18986.173605 19664.431064 23873.601373 20835.258426 21371.460493 16063.598808 11175.402251 16540.996997 9616.036116 8384.278395 4248.938792 38532.863653 18938.304048 18530.626789 18957.216770 24587.909247 20599.151715 13244.005358 19397.085307 11710.935010 7730.059814 6483.766632 5367.323517 4938.361544 2615.537345 18980.600430 18895.716428 19786.092040 23040.081739 19833.822897 19790.984146 9847.319891 15865.027562 9128.865609 8507.701382 8420.860927 7574.992308 3848.499713 19144.300020 20014.350845 21566.802619 24603.420866 24299.642468 9744.186801 16096.232103 14719.884026 18710.354770 13195.069595 6727.787008 6755.015022 2551.796490 19351.729776 20591.207020 24329.165074 21821.132697 22914.533597 17995.514946 8579.582769 21830.086304 13665.559242 16993.986880 4530.524782 3764.804983 -614.671533 19595.482945 21185.772494 24973.911913 22707.008536 20755.853330 18628.639302 10900.814857 17117.184132 9949.128436 12011.872978 11176.200177 7013.170392 2905.861985 19635.722856 20823.702234 23092.794868 23954.834023 17970.509584 18387.259585 21461.103646 17062.414613 14265.915584 10334.694304 4129.150766 5597.292363 3795.983882 19703.984552 21725.934639 26766.976154 24326.386348 25275.572552 18118.782049 24390.468605 20216.891851 9837.796831 12555.397150 6579.594111 6433.143194 2613.490606 19904.458446 21772.190767 26665.508205 22686.639788 24072.490029 10885.695018 18081.974771 23105.847111 22411.547428 13048.127877 12094.764818 6902.913308 4646.456431 20281.622440 21466.773562 23298.080317 21989.549641 16398.664566 14718.532419 18786.654192 21773.620023 7989.045889 7505.346480 8690.682637 11419.074133 9625.084868 20680.966168 21217.035908 20983.678050 22218.477700 22171.581053 20551.077172 13821.718474 17669.055185 13053.080737 7836.978218 3891.741997 8967.886589 1734.342511 20794.418162 20760.373858 21298.677491 24101.177487 19294.260505 22837.074337 21388.487342 16363.075297 14287.201622 12074.434000 14929.273543 3968.853833 5081.500702 20444.376139 19685.410099 18788.669775 24225.518365 22677.802759 20687.783077 23990.041333 19577.700081 12135.531465 14643.191387 13670.331118 1920.108474 6059.294094 19999.053129 19924.793093 20246.840181 24676.516849 25005.622489 23340.493421 23738.982919 17942.817603 9553.817692 4791.517506 8209.998057 7270.607294 4686.608794 19807.309769 20500.254623 21956.810376 23741.326955 20301.276516 20657.519001 23520.877527 23459.326369 13642.892794 7076.283699 10834.952331 6959.442485 3100.481261 19831.105770 20876.369382 23952.321471 25979.169179 23686.713750 21606.568198 22648.297296 10252.461877 7525.903341 12251.931553 4687.598771 8147.649165 3993.839413 19886.525864 21712.610528 26356.434180 24254.548862 21042.090522 21689.129522 9212.245011 7653.475342 8425.275587 12417.664906 5210.549001 5222.490076 626.010450 19798.159884 21553.403320 25526.755089 23941.591555 23940.045186 23275.821373 19057.932823 7507.512843 17278.898397 5907.983675 5530.083039 5106.890738 3045.867765 19785.088397 21586.439723 24596.159232 26352.845842 23614.239231 22668.448174 22480.237220 18443.911011 16738.242395 10408.165778 8386.217173 8303.968284 6083.833846 19899.719608 21481.940079 25923.500499 22171.274054 22294.482015 21960.117067 18579.065732 14511.444054 19234.377163 16476.110524 13756.785058 9488.844053 7143.404598 19912.804337 20705.517302 24869.852290 25767.313628 23802.519001 25866.065198 21700.075283 18423.436681 15088.927018 3727.365544 9317.896588 8232.320798 8765.173523 20234.428888 21491.588300 26375.438221 26913.353398 24257.888693 23466.248834 16668.834763 13114.273835 10416.010959 13041.837002 6695.710657 2690.575264 3103.162826 20646.806857 21428.897975 24287.942780 26261.264085 25812.281403 21388.729886 12862.784378 15324.642294 12563.472733 10365.530192 3434.345297 2720.111489 2160.414241 20897.933829 22169.901600 25573.536519 24876.456500 26642.633627 22999.858750 16652.262521 17430.599017 14185.183004 9061.253918 5398.659236 2046.054520 6813.759112 20964.770728 23060.499708 27661.537374 26223.564525 24242.087118 17858.839622 12692.882032 18099.244605 14056.832663 11425.242152 6921.335989 7312.332738 2823.014300 20951.338399 21963.308166 23556.830665 26325.653818 23770.137251 20440.448858 17504.155462 15038.511643 11393.663545 12201.882487 5355.143209 7508.222495 1635.004883 20980.434789 22078.112545 23535.157316 27832.878802 23891.928285 24939.160397 17203.133337 14698.399481 12653.779386 12864.676934 5124.659760 1069.768207 5344.337090 20811.106898 21562.352207 23114.983165 23990.728545 26208.850309 20692.447686 19480.013594 18381.870836 13832.008636 11210.052817 5211.068567 7308.526746 7530.182912 20628.409510 20697.936800 21509.312506 24417.068151 21623.656936 20466.993303 19725.414327 15057.883228 9997.619126 9819.976025 9154.142287 6165.871686 11144.533156 20444.138825 21212.874216 23772.777392 25171.953503 25493.919201 18962.881871 20975.571204 17586.566509 12749.803854 11993.958323 8592.918285 2579.744682 815.034760 20391.249348 21130.102153 22012.982903 23059.180309 23693.204622 22264.810370 20309.728554 19383.587693 13446.208575 6450.280997 7454.179410 6636.332326 -366.535895 20630.680066 19588.627029 18638.248363 22476.001328 22980.896447 21958.320619 15151.667291 14961.024113 12443.435735 5482.807263 11052.130690 7458.782927 5620.801423 20807.002744 20277.369580 19431.921138 24320.781248 27328.764684 23390.961258 19956.475753 16123.637077 10358.331549 9485.396435 9690.601068 779.883206 8984.536850 20698.389104 21626.760085 22366.063240 25001.686391 22300.343516 22230.087231 16454.235550 12327.879431 8043.845248 9702.320685 4524.550104 10808.552851 1387.544799 20567.065442 21136.593955 21811.326563 25578.047589 20755.185110 21466.702530 18245.692769 18510.945986 13549.971472 8971.069601 9850.528224 8758.846269 1572.088631 20553.286826 21047.707291 21353.214621 23370.989330 20683.084547 23190.308879 20288.614811 14172.374500 9484.599202 10277.428866 7278.795537 9197.455151 7229.075141 20524.429353 20350.714578 19763.233533 23808.747344 24469.331167 20218.301581 15008.880450 11335.041959 5352.478698 80.135699 3435.557937 9259.713809 9017.510477 20413.885328 20777.813510 20804.940145 27816.770640 21877.620890 19317.859271 18409.655926 16536.396912 14771.735517 11174.547341 4399.483178 9638.281947 4445.071396 20286.778665 21687.145645 22925.039151 22442.831363 22768.382279 19379.367474 16117.786025 13245.952696 11999.869964 9193.210772 807.700031 7310.099590 28376.832885 20285.065810 20348.119908 20825.987161 23710.400889 21250.090646 19797.574464 15341.426221 12997.622485 12334.763115 9121.156443 7125.424577 5425.095685 1994.451475 20514.374673 20181.125468 17997.048736 20327.925820 20594.721076 20397.412516 16173.205484 14132.302731 17381.196861 9869.356450 5348.069684 2315.684498 8024.853518 20760.531542 20063.868627 16672.269147 21117.380776 19239.279935 18159.756965 13549.064952 14436.076710 12108.354010 12391.054002 5064.456094 7534.508750 9826.849077 20495.844421 18222.638618 13808.271393 19497.925729 21586.109875 17006.849845 16934.071173 14467.175591 11454.987142 12790.707462 7782.984288 5608.867071 10835.559110 19675.226540 17709.126563 14456.198236 17882.558961 18539.243661 19189.263631 14823.558537 15769.688857 11635.079848 12007.013868 10590.876185 7751.508824 1888.271955 18795.795195 18291.808702 18037.714601 20453.185690 18716.987119 17172.494813 15390.390619 15474.828476 11394.664876 10173.428863 8646.686273 4913.936974 3981.208346 18003.321845 18026.290809 19899.327036 19299.379661 18909.368449 17865.335978 16073.100180 13676.424839 10095.601081 9866.295136 12602.050437 6591.956350 1458.968726 17377.629875 16896.278610 16814.711279 20032.667078 18452.388286 19173.220207 11223.383316 12766.630928 9277.125324 10603.988956 7792.986154 8975.268339 7992.282131 16773.302328 17005.549485 17509.043997 18662.627921 20234.107442 14528.558325 13161.991594 8059.691815 10680.134598 10443.010093 6231.106827 8428.687474 9464.755570 15560.314557 15163.343576 16039.689912 17911.740874 16399.927612 11472.907848 15148.554218 13212.949833 10826.397917 10217.084842 4783.611664 5836.783122 7587.220859 13905.165210 12397.797226 11661.176885 18000.082565 20843.530943 18317.931801 10200.522079 10788.604053 9187.084056 10226.069460 8117.365660 8751.167687 3840.419488 12755.122813 12792.803730 15825.521256 15875.266819 16554.357198 15973.318923 14457.210756 9636.881493 8476.514397 10364.313239 10130.074485 9072.137891 4024.328861 12515.206575 14464.880098 18466.405637 16574.708938 17438.154861 13229.979657 7220.430038 11038.894190 7868.585507 13576.738800 11976.298251 11487.587620 17013.229827 12924.427728 16044.519810 17789.566862 16938.710349 11625.821539 12082.432928 12072.503240 10146.843073 7941.992234 10352.876534 9778.868804 9124.469124 6678.229734 13191.906609 15226.050884 13563.825374 13988.823284 12867.434096 14213.073135 7694.994813 11730.763698 7394.246002 8127.898639 7748.611357 8567.423690 15008.819197 12964.214148 14183.153930 12586.386269 8237.901478 8644.686537 12872.991898 9500.052034 6851.751930 9350.291532 10795.040169 7492.031135 6279.490421 3253.684950 12334.505903 13272.647529 14351.458526 14296.777285 11609.726975 8369.726357 6851.064932 7480.367293 9018.020482 10156.195588 9539.538998 8270.785522 4545.315768 11898.036648 12945.388122 14250.169009 13572.833783 8961.360056 5697.918619 10163.313678 6867.526704 9232.479247 9489.887273 9020.640110 6481.889734 1515.088826 11743.370755 12921.368337 14610.420229 20740.230286 9687.906971 11575.908345 8048.218563 9085.256701 12064.478309 7176.751126 9267.524473 5978.381572 1956.568163 11605.826864 11571.765534 12133.003691 12607.269053 12853.439445 6935.021957 10967.430667 5218.584619 10663.424788 9765.479450 7648.168667 3780.383303 3173.500535 11735.049745 11348.249401 11553.477190 7960.425385 10557.861782 12112.603569 9179.357981 10185.706413 8177.145242 7880.627019 6932.658029 7108.991329 12912.397735 11889.261318 11690.362194 11945.687775 11767.339480 8876.310246 7398.453598 9829.493290 10921.632599 11843.201396 11781.061578 11443.922470 10625.383905 7325.991928 11554.353601 10770.992401 10321.196428 9663.418896 9601.133322 8733.539118 13793.118094 12313.931149 11700.726539 11829.289260 10490.662000 7147.255102 8542.659246 11068.067398 9910.262090 9379.887393 12766.829846 10514.430571 14263.362554 9926.784919 10609.843520 9590.162548 7267.070100 17828.486694 10794.358666 12431.595452 10933.997752 9789.732564 7315.492400 18678.088413 16732.997030 12899.712376 11687.836838 15785.972141 17239.294315 15162.956447 11516.038658 8908.340087 11873.127444
</DataArray>
<DataArray type="Float64" Name="Velocity" NumberOfComponents="3" format="ascii">