<VTKFile type="PolyData">
<PolyData>
<Piece NumberOfPoints="2177" NumberOfVerts="2177" NumberOfLines="0" NumberOfStrips="0" NumberOfPolys="0">
<PointData>
<DataArray type="Float64" Name="Pressure" format="ascii">
 10895.585311 10791.471709 10548.285196 10144.765903 9568.927788 8793.432303 7865.081828 6877.543458 5918.112307 5051.564061 4290.046757 3607.791915 2975.180876 2384.691011 1847.074566 1370.642556 953.710348 589.298066 269.995433 -10.112281 -255.316785 -468.758714 -652.910394 -809.923377 -941.882517 -1051.077748 -1140.416114 -1213.830971 -1275.244283 -1325.745362 -1364.220494 -1390.395721 -1405.134468 -1409.705865 -1405.397025 -1393.376006 -1374.658514 -1350.111523 -1320.470414 -1286.361039 -1248.322912 -1206.831466 -1162.318048 -1115.186833 -1065.828346 -1014.629824 -961.983828 -908.299524 -854.030254 -799.758379 -746.454944 -696.096480 -652.438147 -619.894531 -600.087310 -591.623316 10973.349627 10903.327860 10681.722639 10279.621442 9763.577439 8952.214043 7901.892043 6816.397919 5821.794562 4994.553474 4297.418060 3660.544169 3031.423069 2418.618309 1863.125065 1378.248399 957.711775 591.814024 271.896413 -8.483569 -253.827129 -467.347919 -651.526698 -808.470726 -940.133306 -1048.502327 -1136.031635 -1206.957353 -1269.303415 -1322.980066 -1363.117100 -1389.924181 -1404.881787 -1409.535474 -1405.264329 -1393.265485 -1374.563788 -1350.029255 -1320.398464 -1286.297897 -1248.267506 -1206.783057 -1162.276126 -1115.150946 -1065.797670 -1014.601925 -961.950782 -908.235537 -853.852348 -799.207184 -744.760839 -691.689591 -643.822406 -610.261493 -591.831473 -584.772543 11146.292599 11227.631813 11163.423191 10732.731484 10830.837398 9740.502241 8082.263482 6740.971305 5655.267306 4985.783688 4427.186656 3850.255472 3163.168069 2476.017210 1884.133387 1387.051200 962.065141 594.447099 273.841087 -6.834588 -252.323662 -465.922356 -650.119611 -806.968248 -938.250999 -1045.491973 -1129.834277 -1193.338114 -1256.005094 -1319.400616 -1362.324022 -1389.820614 -1404.960458 -1409.653203 -1405.381090 -1393.371185 -1374.657055 -1350.111081 -1320.470279 -1286.360990 -1248.322871 -1206.831371 -1162.317748 -1115.185861 -1065.825187 -1014.619550 -961.950406 -908.190805 -853.676652 -798.606842 -742.736398 -683.402071 -624.157931 -591.764021 -577.534085 -573.230883 -585.412474 -570.235257 -564.442718 -542.253473 -536.690505 -533.815254 -495.392143 -494.059993 -492.883407 -453.400854 -453.030551 -452.623768 -414.062502 -413.976451 -413.823295 -377.045868 -377.044888 -376.972169 -342.273923 -342.299009 -342.251220 -309.734394 -309.767310 -309.727401 -279.415915 -279.450820 -279.413761 -251.291513 -251.326389 -251.290849 -225.315689 -225.349733 -225.315485 -201.425712 -201.458525 -201.425649 -179.544155 -179.575501 -179.544136 -159.581753 -159.611473 -159.581747 -141.440209 -141.468200 -141.440207 -125.014836 -125.041034 -125.014835 -110.196951 -110.221332 -110.196951 -96.876011 -96.898576 -96.876011 -84.941451 -84.962230 -84.941451 -74.284251 -74.303292 -74.284251 -64.798217 -64.815586 -64.798217 -56.381017 -56.396791 -56.381017 -48.934963 -48.949228 -48.934963 -42.367594 -42.380445 -42.367594 -36.592066 -36.603597 -36.592066 -31.527371 -31.537681 -31.527371 -27.098437 -27.107622 -27.098437 -23.236092 -23.244247 -23.236092 -19.876958 -19.884174 -19.876958 -16.963254 -16.969619 -16.963254 -14.442559 -14.448156 -14.442559 -12.267527 -12.272433 -12.267527 -10.395577 -10.399865 -10.395577 -8.788572 -8.792308 -8.788572 -7.412488 -7.415734 -7.412488 -6.237079 -6.239891 -6.237079 -5.235562 -5.237991 -5.235562 -4.384300 -4.386392 -4.384300 -3.662502 -3.664300 -3.662502 -3.051951 -3.053492 -3.051951 -2.536734 -2.538050 -2.536734 -2.103002 -2.104124 -2.103002 -1.738750 -1.739704 -1.738750 -1.433613 -1.434423 -1.433613 -1.178687 -1.179375 -1.178687 -0.966370 -0.966954 -0.966370 -0.790219 -0.790715 -0.790219 -0.644831 -0.645255 -0.644831 -0.525746 -0.526111 -0.525746 -0.429365 -0.429685 -0.429365 -0.352890 -0.353177 -0.352890 -0.294288 -0.294554 -0.294288 -0.252269 -0.252526 -0.252269 -0.226292 -0.226553 -0.226292 -0.216589 -0.216867 -0.216589 -0.224217 -0.224527 -0.224217 -0.251131 -0.251488 -0.251131 -0.300284 -0.300706 -0.300284 -0.375757 -0.376265 -0.375757 -0.482917 -0.483536 -0.482917 -0.628608 -0.629364 -0.628608 -0.821371 -0.822296 -0.821371 -1.071699 -1.072830 -1.071699 -1.392331 -1.393709 -1.392331 -1.798573 -1.800246 -1.798573 -2.308661 -2.310682 -2.308661 -2.944149 -2.946580 -2.944149 -3.730336 -3.733244 -3.730336 -4.696716 -4.700176 -4.696716 -5.877446 -5.881544 -5.877446 -7.311840 -7.316666 -7.311840 -9.044858 -9.050512 -9.044858 -11.127595 -11.134185 -11.127595 -13.617761 -13.625402 -13.617761 -16.580114 -16.588928 -16.580114 -20.086861 -20.096975 -20.086861 -24.217976 -24.229520 -24.217976 -29.061439 -29.074546 -29.061439 -34.713357 -34.728161 -34.713357 -41.277948 -41.294580 -41.277948 -48.867365 -48.885949 -48.867365 -57.601323 -57.621976 -57.601323 -67.606517 -67.629341 -67.606517 -79.015792 -79.040873 -79.015792 -91.967052 -91.994453 -91.967052 -106.601877 -106.631635 -106.601876 -123.063839 -123.095958 -123.063836 -141.496497 -141.530941 -141.496486 -162.041068 -162.077754 -162.041031 -184.833775 -184.872552 -184.833657 -210.002891 -210.043489 -210.002508 -237.665528 -237.707414 -237.664283 -267.924343 -267.966253 -267.920305 -300.864671 -300.903098 -300.851574 -336.553709 -336.577990 -336.511231 -375.047050 -375.023203 -374.909301 -416.420706 -416.236539 -415.974014 -460.884631 -460.157552 -459.437344 -509.374756 -506.579995 -504.663024 -562.472701 -552.082947 -547.637871 -590.128018 -573.382844 -566.081837 17076.239940 17479.284823 18529.829286 19588.177229 18682.940428 16359.865231 14349.036785 14322.485187 12327.155757 11646.008404 11317.313722 10078.544704 7939.499117 6738.077434 4285.019426 1382.643782 997.191260 2573.976207 2747.782822 3173.592780 3755.047650 3594.815211 3448.187707 3307.219391 3109.773552 2832.481565 2485.431990 2091.784722 1675.433775 1256.574247 851.056331 470.838292 124.536126 -182.121567 -445.910334 -665.762446 -842.430407 -978.141831 -1076.236315 -1140.791987 -1176.264907 -1187.170715 -1177.832882 -1152.209710 -1113.798387 -1065.603433 -1010.150269 -949.520193 -885.373282 -818.884253 -750.429983 -676.905805 -610.515079 -581.806900 -569.454264 -565.025601 17324.888972 17678.319539 18244.956151 17832.448370 17135.666287 16619.914778 15881.718993 15795.469903 14608.043952 13436.225260 12777.630913 11685.296034 10649.691200 9514.544306 8071.636325 6693.208903 6171.444308 6096.523501 5401.761515 4530.266019 3971.024121 3657.738711 3472.585437 3317.554036 3113.629160 2833.562692 2485.557639 2091.734277 1675.486026 1256.799759 851.448467 471.364836 125.158448 -181.441489 -445.207328 -665.067012 -841.767901 -977.531733 -1075.691790 -1140.319960 -1175.866762 -1186.843467 -1177.570619 -1152.005097 -1113.644280 -1065.495255 -1010.091605 -949.539712 -885.579676 -819.654951 -753.018441 -687.282282 -629.407458 -595.251205 -578.532010 -572.256223 17658.034411 17709.393843 17985.855940 17763.527898 16905.080885 16270.261515 16163.864011 16064.315859 15406.464432 14614.425974 13953.485174 13193.701678 12229.866301 11105.566486 9874.031960 8722.908321 7839.413541 7005.625372 5930.597714 4857.369335 4111.084338 3706.439537 3495.573856 3329.939177 3120.293608 2837.013053 2487.257218 2092.483717 1675.693304 1256.669513 851.091498 470.851505 124.541210 -182.119562 -445.909523 -665.762110 -842.430265 -978.141770 -1076.236292 -1140.791986 -1176.264940 -1187.170835 -1177.833278 -1152.211000 -1113.802581 -1065.617061 -1010.194558 -949.664141 -885.841019 -820.406698 -755.327386 -693.914066 -641.959652 -606.044103 -585.923342 -577.778279 11295.188871 11553.956816 11728.242747 11478.858904 12157.139277 10562.859687 8512.573342 6923.099263 5714.429238 5159.057474 4604.021772 4193.011377 3415.129211 2497.895903 1889.785380 1388.744791 962.625311 594.640976 273.921419 -6.785749 -252.280645 -465.874794 -650.055215 -806.857545 -938.013874 -1044.893226 -1127.873420 -1186.395443 11676.428602 12029.244818 12136.199844 12196.146408 13254.300253 13018.540337 9440.062011 12781.186322 12640.851480 11803.649895 11557.246333 12872.497994 12576.475200 11981.991140 10914.918882 11336.558573 11216.577790 10209.670646 9212.936944 10778.659817 10453.529152 9397.436468 12249.652307 13040.406937 12476.452644 9392.143217 4502.997234 5556.572645 11983.420346 11926.845258 11066.485154 11247.911638 12141.856956 9795.872552 10072.479232 7509.419811 12824.872404 7035.525292 13824.074553 11324.808728 10530.725630 11256.668674 10660.857316 11599.623718 12660.535423 7440.896543 12745.811971 8679.977318 11312.273690 9603.218976 10638.339704 8702.551196 9803.966926 6787.576151 7930.286045 8846.644770 12153.936668 11762.035086 11057.838655 11486.253476 9946.666800 9739.242348 7997.031425 8446.558695 13438.987544 12762.459975 11371.946173 10145.973958 10814.352184 8592.692807 13515.093654 5562.045040 7777.124955 5146.090870 10236.022983 12791.508943 7342.084524 10804.124459 11611.963616 8729.207677 9558.291618 9806.767920 9287.309796 5086.480853 12329.331910 12105.256412 11665.058140 13690.992578 9347.605155 12924.221201 12031.926017 13043.595296 12192.470457 9586.836116 14124.457199 3937.266483 5432.448265 8128.919863 9960.487453 10277.261736 6466.530412 11358.728626 9428.249632 11191.475683 7788.483493 12255.489527 5412.022853 6189.612522 3771.270407 2762.413691 6654.534545 4244.213100 12527.032798 13070.542085 13449.250205 13337.126783 11278.398906 9845.491018 12168.352022 11767.377325 13001.457887 7201.841622 4253.804138 11101.064617 8219.669469 7577.733043 8711.024630 7663.073059 6602.580125 3218.939506 5977.768681 4141.030608 8975.627064 5581.546233 10590.690538 6742.915662 6570.397586 8135.095186 4661.988910 3841.575219 12695.732855 14149.282900 15775.763944 12324.973024 10668.394402 6981.699356 13141.604435 8785.197731 13404.768826 7778.026932 9550.877614 13859.508960 9362.106710 6542.534030 10150.640741 7141.232634 9022.069470 3315.039319 10020.602313 9119.027800 11555.334795 4646.678745 3345.056827 5844.357037 3672.162293 2858.132671 4782.348518 4772.303715 12752.768178 13203.066092 13214.463042 9685.115713 11642.298172 11562.475042 12312.197765 6382.041465 12550.767197 5237.659943 3841.353863 6488.905453 12088.177555 8705.489664 12508.141849 8635.053235 4634.864207 9320.003288 10135.976663 5384.761421 6570.850553 10039.837189 3861.217131 7562.516351 9075.211377 7665.707896 3342.465266 3633.722747 12819.515643 12285.854595 11405.013222 12283.478431 9979.383408 12766.113194 10262.718258 11726.430988 12549.360703 10858.190669 12832.658683 10814.039207 11053.758005 6748.814159 5117.329050 12842.331373 9299.392606 9734.091981 4034.241072 4108.317444 5144.179128 5396.668402 4040.377627 3796.149735 8198.767703 3469.944628 5091.419196 3045.517336 12809.841200 12608.178845 11651.599448 13046.955431 13177.308705 12365.677515 10829.071444 10294.785608 9421.048342 6219.997022 10335.768558 3353.290901 8515.688766 9477.367373 4944.534478 5890.874401 5441.975204 7802.434770 5500.214402 8822.139125 5149.940837 3360.937765 4094.304300 6058.002763 4230.417726 3040.834900 2458.975631 5459.244659 12694.446000 12323.936283 11162.973532 12598.262494 13558.488900 12723.634738 8999.962651 12026.712027 4293.190494 13196.425642 5525.620199 8746.360618 5920.157602 3939.855354 8055.610742 9281.104514 5738.037545 7997.388757 7276.777069 5525.368278 6074.667911 4010.265625 7330.899250 7850.185754 4297.772953 7669.170369 6857.944999 3800.959555 12560.011810 11725.389794 10343.445925 13033.266135 11578.416160 13994.651227 9960.093462 11615.877991 7425.788893 8895.791510 4528.084303 4901.043571 9367.400744 9970.867138 8096.711520 7701.831961 8112.317109 3805.564598 3425.547773 3821.026287 5895.770047 8370.605222 2770.908791 7272.645732 4222.062644 4726.068191 3751.469741 4214.796670 12351.308811 12370.429849 12427.222200 14047.206266 12926.133896 9057.209236 7534.694477 9483.959467 7692.138849 9005.852744 6512.866841 9639.832197 10120.330115 4825.307259 6873.646507 4798.293264 10180.481855 5629.793499 6267.687656 9471.452153 8894.144644 6522.277177 11514.869572 4683.065800 5519.681115 4695.886240 4414.874803 4287.607629 12240.288314 12799.235245 13617.454852 13577.227886 10649.123386 11407.616222 10969.617189 10184.863569 6579.551662 13071.194090 8043.994321 5093.176091 4239.941443 3938.616171 6456.961810 7992.296997 7623.442783 4619.338032 6672.726237 5298.787580 5060.335736 5013.933357 2450.659362 7059.078057 4786.406228 4656.602886 6979.274629 4375.812779 12396.286434 12066.240434 11665.046400 14016.519926 12908.041799 12099.594487 12411.022571 10573.735558 11282.024799 5761.150520 11165.028070 6950.289206 4832.235163 6010.327340 3936.354764 5637.362649 1374.213832 6755.716661 5095.444994 6767.586456 5493.099598 4470.776330 4192.792279 4170.194679 4895.681282 3531.918129 4146.131730 3734.815980 12638.238178 11525.683487 9237.109314 11318.722685 13197.538927 11193.182907 12485.277098 10015.868865 9129.164723 8162.946816 7543.946054 5120.797652 2452.112434 12834.367952 12098.183130 10134.236720 13828.330013 11518.370501 11179.688004 10836.077030 8610.214520 10857.847412 5306.648731 4999.819333 7946.676039 3802.302499 12895.476606 12226.808704 10710.841207 12736.182820 11032.638128 10300.920154 4843.673813 9738.708911 10298.278222 4553.859624 6587.287104 8913.303224 8906.582118 12785.799629 12346.568432 11430.184265 13626.278878 10986.850196 11088.587177 9055.490413 11920.238452 5406.298666 5818.114626 4987.539090 5983.538160 5903.476293 12758.407421 12824.711076 12611.011786 13877.377006 9893.880332 11989.534477 10748.338246 5004.507436 6253.889745 8227.448795 11032.377886 6555.992835 2346.530311 13013.222667 12932.534744 12745.038563 13101.983298 16252.669771 13645.942904 10713.740730 14397.703317 5453.003800 5930.399465 8724.071113 4266.146037 7960.608633 13315.862081 13047.284494 11973.805635 15163.005320 11115.086946 11475.695963 7077.078165 8878.926835 7968.443717 6580.134623 9375.900961 5336.059882 4207.580726 13503.341930 13134.783571 11493.021234 13877.534284 11166.313214 7505.194101 6605.707963 7058.381453 5008.581872 12025.240532 5295.769333 6471.595138 4372.953245 13487.747298 13601.956082 12848.687409 14706.323215 11476.689623 8036.083581 9728.654434 11098.136680 9106.608542 9350.175888 7006.421229 6368.865041 3789.641681 13190.778285 13746.280368 13604.793979 15323.391782 14077.048471 12630.567587 11660.477793 9323.825353 8936.750971 8276.115568 6439.853784 6389.684837 10634.816503 12901.407298 13050.540750 12980.565251 14291.770808 11685.302100 11633.285579 10941.014359 7194.447958 9336.524975 13378.012003 8088.242008 8406.852476 12348.411441 12846.045731 12167.146206 11451.366614 14847.651528 14472.279408 12816.984339 13671.152910 12675.892025 8934.430432 9949.426145 11303.361541 6525.739593 7377.451299 12829.734528 11225.151995 9919.278731 15453.764945 13636.449931 18482.808501 12993.553789 13446.598052 6717.106840 11002.460994 11392.013124 5332.783544 4954.676465 12888.838345 12203.384968 11562.492639 13690.720016 12771.781603 10713.345585 13855.277015 12139.309554 6501.005746 12567.607154 5419.469958 6447.188930 7528.068465 13145.052926 12918.559481 12211.103614 15246.181272 13659.424243 14080.650952 14985.100056 15097.456762 12614.617373 13188.044834 5091.924528 8292.423733 7081.549751 13431.244692 12976.398317 12061.991410 12525.859710 12415.634192 14840.932461 16052.452743 13989.798102 10522.360631 12051.740532 7143.960942 6557.375857 4644.825763 13483.445861 13039.037363 11944.128129 9222.695825 14305.115726 13227.844809 12984.290446 14178.557183 7497.127731 7867.203132 6045.624973 6581.135461 8129.808589 13366.271883 12565.177720 11526.223283 16046.926291 14432.469053 12439.810286 11933.154213 11271.358439 10820.702525 14081.295842 7087.328500 5613.170461 8523.455390 13420.851777 13176.273672 13008.055287 15377.449911 14534.847812 14663.294395 11808.186797 13499.878344 11855.071332 8727.808856 11362.308018 11983.592596 3455.613618 13573.125088 14148.326340 14764.985387 16162.302614 17624.163634 14169.769645 12870.841878 8844.868853 8597.692581 11975.623985 14532.163150 6841.025176 5200.696647 13578.369576 13798.209862 14026.394953 15397.026632 15392.695443 14605.348725 13048.139867 7563.255538 15367.564270 8293.666621 8475.295757 5443.034863 5124.283138 13505.819960 13447.817814 13498.457176 17565.077095 14922.752291 13839.815112 9163.942424 11638.850663 10782.446380 7542.458323 9966.961954 6960.062571 6006.666916 13594.783515 14225.454380 15201.382945 17414.997110 14376.459454 14119.403897 10620.256788 9271.161974 8763.026933 6995.896923 8104.378082 4748.676258 9063.010738 13892.780348 14979.483098 16341.564678 14965.993281 15067.212734 13257.059802 14946.189127 11316.941202 7802.585721 7451.327085 6541.247566 6170.872050 4422.062044 14181.774810 14306.598686 14447.687165 15291.280403 15905.995450 15999.221020 9454.736949 14160.435725 8662.046890 9989.575938 13462.576548 9354.150677 7018.301576 14342.759544 12978.005747 11651.103562 17484.614524 16459.149246 8325.871067 11865.208687 11531.812459 14721.884083 11521.123197 12310.268265 10546.874903 8663.711682 14392.712437 13109.531244 12553.593902 15886.128314 15205.308206 13386.170769 8829.514019 16622.716804 9193.705142 11881.496033 8393.097736 7522.244534 530.090695 14430.940733 14092.081190 14222.284647 17344.312353 17789.503448 16546.145955 7203.474872 15017.513431 7347.055489 9814.698902 11503.601059 8309.097651 5696.004302 14684.002667 14527.515183 14465.023724 16172.390809 14060.019292 14847.932575 15671.732554 15647.579662 9059.395020 10705.748402 7784.902990 4626.087321 4034.197392 15120.966340 15284.001127 15279.983950 17766.340114 17287.997555 15808.742788 16680.796090 15760.175987 6377.357093 8631.303617 4444.536401 7791.279992 12257.619009 15587.149380 15737.357002 15539.816343 17955.066143 16966.893530 6908.143574 9494.768893 15894.326548 17351.323582 13440.552781 11140.519816 9323.129842 7359.175664 15980.583781 15541.440970 15318.327143 15834.893997 13702.716300 10074.132302 12424.911118 15650.541456 8043.682026 8435.466357 8377.501459 8286.870795 8365.377825 16132.608587 15797.704765 15634.728461 19059.905022 16955.911091 15593.151672 12156.516626 13958.283741 13248.444052 11151.398959 6131.888539 12299.450201 6848.805523 16062.728904 16765.736732 19078.669923 18766.964736 15710.360690 16252.326295 13056.131772 11208.495986 12010.891772 11098.983896 11096.999905 6869.002363 6152.181537 15977.275702 16814.474096 19298.799552 15733.048490 17192.617879 13791.294657 15363.908277 14883.028821 11507.053610 12600.134413 17951.944280 6210.583075 8537.770883 16279.675770 17216.836932 18512.288896 17240.134690 17090.218536 17155.347066 14565.586239 15248.153463 10633.843118 9779.322281 8081.407082 8912.571728 7189.182618 17038.944924 18738.769758 20371.295921 18203.744573 17128.411733 15827.562076 13742.268324 16929.145763 12151.939771 8474.219704 7374.746247 9426.808176 7809.328053 17771.466644 19423.958000 19746.315344 17916.221118 17709.660623 17105.079522 19596.009566 10508.025542 15846.519697 9611.424058 8193.725538 9126.842588 6657.797506 18065.600171 19021.251890 18502.137306 20149.618403 17698.464988 17297.713628 10264.925146 10356.706747 8163.581030 14007.744117 8189.498887 5661.272496 752.751824 17862.861217 18299.405761 18428.933342 15593.435239 14016.060405 17117.977229 14358.346053 9306.363139 11712.204277 9316.191342 7189.785580 4620.628808 6491.477089 17534.847194 17693.616399 19269.445878 18956.403382 16605.311807 17788.742857 17062.693882 12404.415825 10832.585234 10314.984555 10841.156642 8985.933332 5828.941612 17460.782144 17321.300273 18814.746605 17388.024374 17017.673308 17547.689301 13885.557000 12439.904878 17029.334738 13763.752377 9980.450377 8360.601567 7735.781711 17522.039658 16593.101862 17200.359243 18719.312596 17013.640205 21974.152751 16939.952552 14965.831833 17371.960595 8585.284453 9431.856133 10686.038246 4147.461963 17635.100342 16927.381622 16691.254579 19264.655881 17391.353632 14082.714661 15395.901003 14507.211433 11060.064157 12059.326418 7646.048948 3560.485922 5783.599286 17840.830063 18020.102044 19391.249605 22490.454040 20242.165798 14623.115041 12981.036086 17632.426899 13345.335212 9186.133489 6931.267354 11145.416513 4052.825785 18170.809241 18609.055378 19713.320442 19776.434844 18973.865333 18479.806189 13866.224009 16843.340347 15587.607714 14598.398369 6577.620640 9257.955175 -7617.658111 18749.612971 19406.470584 19994.530061 18400.796748 18370.229001 15224.583358 10730.199241 14815.219007 15432.612065 11199.908234 7905.360273 10546.145946 5588.552503 19335.112969 19837.620951 21036.183739 18591.458741 18931.498571 12254.653943 18001.165188 15594.532169 11169.520356 8092.723891 8832.654325 11011.600746 7078.121188 19540.921973 19464.990133 20046.723717 20759.581689 19923.416333 18417.786694 12306.441912 12200.433625 11764.238522 15235.610253 7335.427209 6718.971311 6264.294798 19534.023287 19537.611191 19915.864305 20338.642511 20399.764321 19536.754499 18458.064401 16679.334170 14709.793042 12734.319559 7516.699514 11205.645406 11458.890605 19436.405800 19575.006331 20368.497342 19996.490553 15579.064175 19609.044361 16179.145221 16020.565724 5393.671168 8589.611765 13981.444699 7857.352939 13453.753895 19150.910482 18382.686594 18070.836741 19048.852802 20897.438529 18205.395040 12476.719748 13053.720069 14078.036514 10033.344337 9174.439896 6597.450665 5121.299086 19014.254352 17735.379182 16181.329570 20187.785903 17238.410291 18758.693824 18286.918283 15691.997316 16245.689617 11969.950184 9923.715223 9650.698898 6114.465423 19056.639191 16401.109156 13942.122372 16915.240845 21325.927457 19581.578374 10000.086107 17704.755300 10626.591502 8467.498185 10616.465460 9023.027830 7646.982237 19221.453625 18897.337352 18800.396963 15715.086937 18623.378529 20373.180625 10788.812288 16061.477231 15538.612606 10972.263826 12213.452487 4891.828409 5384.989248 19318.993969 19545.729706 19190.212791 17007.333851 18464.752884 17519.614470 16227.535925 14057.895558 9660.452165 10749.373818 8678.683276 13493.490783 3656.245917 19520.164840 19788.461036 20185.611528 20304.653900 18582.899953 18653.855191 11988.237801 16499.254169 12070.698934 8508.002324 13096.759015 4670.323918 6911.376640 19745.332770 21117.246540 21998.361237 19169.509799 15881.958788 15775.797853 18222.855017 12970.149055 13118.401360 9706.201287 7448.808679 12390.399738 6241.162792 19620.446616 20943.678204 22817.184847 18554.967620 16675.923938 16283.507480 7328.784780 10633.396854 5098.715028 5041.459450 7437.615883 13168.656122 5597.960790 19253.136401 19775.525424 22036.103430 18071.800607 19117.655141 16848.197735 14475.498182 9741.931461 13147.765171 12568.148802 8248.237321 11719.313619 1013.868575 19103.304801 19504.580426 21328.456843 19385.418827 17247.192022 14555.857781 12054.630445 15027.593627 13862.217339 13304.949292 4238.171323 10124.313404 19483.304492 19492.775841 19212.969743 20139.580202 18150.637688 18549.053475 18452.435543 18361.530332 12904.647487 13501.080444 13262.545208 7745.645694 11939.938735 20500.320571 20051.909941 19188.482568 18034.524491 16797.728059 22671.903524 19600.628576 15147.618812 15969.086064 17716.088235 6565.692865 9699.190113 4539.069430 10506.837075 20092.864133 18274.236745 16391.237382 21035.077225 16554.886373 11328.763242 12331.087227 15793.670331 9257.898712 15634.516656 10935.314360 11059.433555 9829.990532 19878.941775 18230.580064 17261.749753 19782.196901 18135.975599 14596.149589 17404.141363 20528.341545 13422.244964 14620.183526 12289.244862 11969.524556 11892.926657 19840.931398 20426.081004 21744.890544 16565.549972 18696.662585 17682.747230 11660.828148 16377.792468 16977.427088 15762.413124 13891.162086 9139.534505 7835.007196 19529.755244 18365.195792 17839.436272 19977.536369 13637.998722 21786.173730 13257.753069 14059.390215 10461.609614 11535.005726 11941.397569 11471.631325 9630.678687 19326.462375 18572.366214 17244.340154 19462.933393 17924.260286 15061.974990 17041.790982 17315.385632 14162.030265 11538.876358 14653.884609 7801.542382 882.494340 19365.422510 18648.327965 15664.572379 21620.316748 14751.954984 14714.730396 19035.705356 18209.777340 10195.609762 13813.493117 11411.849767 7238.251920 13681.246604 19269.108826 19879.517251 19054.012321 12810.737776 18774.661049 20326.177619 12988.965735 12753.864800 16268.712984 16298.463230 9099.988784 16178.855398 8536.579314 19035.902990 19176.991640 18743.413942 16577.138723 15281.313840 17971.878893 13974.816784 18258.360595 17942.269169 16185.968461 4410.395195 6575.389419 -502.281835 19193.511351 19517.587052 20093.922615 20353.151133 15029.423966 16188.695594 15773.885323 15913.423914 12816.862581 18048.195499 16196.934050 14538.409000 9063.224978 18902.353591 17756.489319 17248.477498 21890.832202 14274.737018 15793.215022 15754.862359 16050.883663 9385.652474 9149.670225 12761.167440 12286.431632 6836.146728 17880.878485 14851.287641 12915.841445 19005.766253 16738.948137 18361.791134 9145.447972 14321.728166 8834.427861 8940.134660 14498.363139 14086.606800 7041.023001 17540.028479 15004.943572 13435.912801 19705.414898 16608.971482 15198.967078 12233.616501 11743.105622 11552.044954 14989.386775 14621.925052 11140.029053 13065.397595 18120.552760 17130.796537 16483.332204 13307.755415 17629.937635 18539.167631 11205.468303 16216.862440 10103.645896 14681.609104 11076.946624 14548.326998 7773.129561 18318.067010 18341.124878 18274.831446 15957.478961 14717.032916 15393.243639 12568.916255 6664.544913 12832.943252 10841.045668 11039.207778 3218.105592 6838.546615 17889.811773 16853.038144 16786.023899 14492.391700 19185.314548 17143.674196 15974.157992 12745.245717 18218.697899 16917.125421 12281.179331 7762.246124 10550.311278 17705.169867 15893.891178 18141.174615 12993.954545 18418.994620 18109.247150 19036.060069 3187.974931 14287.396540 15290.481965 13435.495636 9756.844418 7093.806867 18061.998521 16340.192600 17364.061968 19074.974475 18788.611860 15869.234663 17617.811309 12294.563503 15458.331543 10302.225984 18269.411702 12556.368908 6039.869370 18688.897202 17597.038063 17268.907386 15378.206450 15374.494367 13422.365580 14951.214423 17334.565875 15305.774753 14420.617461 16577.969690 16103.420059 10028.963512 18959.656420 18267.813687 18319.442346 13370.659027 15204.166587 17323.996087 14489.366595 17645.226955 17128.815048 16197.765099 12319.007208 9572.047435 6958.168790 18420.783276 17836.259931 15806.388861 15748.296730 13855.100584 18098.354632 16890.558330 19052.287046 15549.094887 17863.741972 10040.506662 17559.206467 6223.384501 17555.196795 17986.471812 17181.687364 18113.305167 15020.724212 19474.010439 18578.372885 16355.088517 18361.000867 18696.869866 16768.341585 19988.444706 16293.087753 17045.181795 17401.680725 17900.138954 18003.144672 18433.921522 16650.348482 15658.863657 17249.011014 14883.998025 10862.323067 15079.246691 15732.233591 18448.133219 17076.239940 17479.284823 18529.829286 17028.345936 18039.994892 18624.634019 17213.214026 16996.619132 16999.838791 17597.859474 17560.546375 18051.032937 14535.569121
</DataArray>
<DataArray type="Float64" Name="Velocity" NumberOfComponents="3" format="ascii">