<VTKFile type="PolyData">
<PolyData>
<Piece NumberOfPoints="8632" NumberOfVerts="8632" NumberOfLines="0" NumberOfStrips="0" NumberOfPolys="0">
<PointData>
<DataArray type="Float64" Name="Pressure" format="ascii">
 -0.138545 -0.138545 -0.138545 -0.142855 -0.191677 -0.320793 -0.475173 -0.664932 -0.897439 -1.182441 -1.532701 -1.963822 -2.494301 -3.145790 -3.943470 -4.916493 -6.098429 -7.527747 -9.248283 -11.309708 -13.767977 -16.685748 -20.132777 -24.186250 -28.931070 -34.460073 -40.874164 -48.282371 -56.801796 -66.557452 -77.681991 -90.315279 -104.603828 -120.700051 -138.761312 -158.948756 -181.425862 -206.356707 -233.903876 -264.225999 -297.474873 -333.792162 -373.305673 -416.125252 -462.338353 -512.005357 -565.154634 -621.777081 -681.819183 -745.171805 -811.647597 -880.929094 -952.443465 -1025.066401 -1096.470332 -1162.343244 -1216.385138 -1249.420820 -1244.820509 -1174.455392 -1023.522172 -845.328726 -708.970166 -589.020681 -436.850442 -295.556564 -238.134588 -243.468866 -239.347848 -177.381477 -94.851814 -74.551268 -106.589764 -112.049879 -50.473879 17.544324 32.328421 43.208465 113.128808 204.720231 234.471244 210.780614 213.457337 305.929087 462.656700 593.497950 682.436314 801.895635 1038.033099 1410.035868 1833.760814 2221.891565 2571.754663 2933.965910 3361.307678 3879.310902 4485.183195 5160.466912 5864.157803 6555.000305 7227.734848 7890.029517 8520.295741 9080.152147 9565.508358 9997.280375 10386.663589 10640.744769 10688.502303 10688.502303 10688.502303 -0.138545 -0.138545 -0.138545 -0.142855 -0.191677 -0.320793 -0.475173 -0.664932 -0.897439 -1.182441 -1.532701 -1.963822 -2.494301 -3.145790 -3.943470 -4.916493 -6.098429 -7.527747 -9.248283 -11.309708 -13.767977 -16.685748 -20.132777 -24.186250 -28.931070 -34.460073 -40.874164 -48.282371 -56.801796 -66.557452 -77.681991 -90.315279 -104.603828 -120.700051 -138.761312 -158.948756 -181.425862 -206.356707 -233.903876 -264.225999 -297.474873 -333.792162 -373.305673 -416.125252 -462.338353 -512.005357 -565.154634 -621.777081 -681.819183 -745.171805 -811.647597 -880.929094 -952.443465 -1025.066401 -1096.470332 -1162.343244 -1216.385138 -1249.420820 -1244.820509 -1174.455392 -1023.522172 -845.328726 -708.970166 -589.020681 -436.850442 -295.556564 -238.134588 -243.468866 -239.347848 -177.381477 -94.851814 -74.551268 -106.589764 -112.049879 -50.473879 17.544324 32.328421 43.208465 113.128808 204.720231 234.471244 210.780614 213.457337 305.929087 462.656700 593.497950 682.436314 801.895635 1038.033099 1410.035868 1833.760814 2221.891565 2571.754663 2933.965910 3361.307678 3879.310902 4485.183195 5160.466912 5864.157803 6555.000305 7227.734848 7890.029517 8520.295741 9080.152147 9565.508358 9997.280375 10386.663589 10640.744769 10688.502303 10688.502303 10688.502303 -0.138545 -0.138545 -0.138545 -0.142855 -0.191677 -0.320793 -0.475173 -0.664932 -0.897439 -1.182441 -1.532701 -1.963822 -2.494301 -3.145790 -3.943470 -4.916493 -6.098429 -7.527747 -9.248283 -11.309708 -13.767977 -16.685748 -20.132777 -24.186250 -28.931070 -34.460073 -40.874164 -48.282371 -56.801796 -66.557452 -77.681991 -90.315279 -104.603828 -120.700051 -138.761312 -158.948756 -181.425862 -206.356707 -233.903876 -264.225999 -297.474873 -333.792162 -373.305673 -416.125252 -462.338353 -512.005357 -565.154634 -621.777081 -681.819183 -745.171805 -811.647597 -880.929094 -952.443465 -1025.066401 -1096.470332 -1162.343244 -1216.385138 -1249.420820 -1244.820509 -1174.455392 -1023.522172 -845.328726 -708.970166 -589.020681 -436.850442 -295.556564 -238.134588 -243.468866 -239.347848 -177.381477 -94.851814 -74.551268 -106.589764 -112.049879 -50.473879 17.544324 32.328421 43.208465 113.128808 204.720231 234.471244 210.780614 213.457337 305.929087 462.656700 593.497950 682.436314 801.895635 1038.033099 1410.035868 1833.760814 2221.891565 2571.754663 2933.965910 3361.307678 3879.310902 4485.183195 5160.466912 5864.157803 6555.000305 7227.734848 7890.029517 8520.295741 9080.152147 9565.508358 9997.280375 10386.663589 10640.744769 10688.502303 10688.502303 10688.502303 -0.137457 -0.137457 -0.137457 -0.141671 -0.190038 -0.318122 -0.472581 -0.663125 -0.896174 -1.181315 -1.531486 -1.962399 -2.492593 -3.143735 -3.941009 -4.913559 -6.094954 -7.523655 -9.243490 -11.304126 -13.761510 -16.678296 -20.124235 -24.176507 -28.920014 -34.447588 -40.860134 -48.266682 -56.784333 -66.538106 -77.660657 -90.291859 -104.578237 -120.672214 -138.731172 -158.916273 -181.391022 -206.319524 -233.864398 -264.184314 -297.431119 -333.746533 -373.258433 -416.076756 -462.289098 -511.956095 -565.106653 -621.732922 -681.784422 -745.159528 -811.689549 -881.103047 -952.937243 -1026.310047 -1099.177830 -1167.353798 -1224.706762 -1263.686043 -1269.031192 -1205.618199 -1062.452039 -839.067510 -706.234149 -604.351129 -439.089777 -262.205274 -218.163937 -248.156682 -261.502523 -188.010089 -70.216584 -55.740264 -116.092610 -137.828691 -54.341560 36.531106 32.783990 18.072265 101.202444 226.085340 253.427764 200.979827 178.483109 278.738413 471.394522 609.231284 672.201124 759.228331 984.288332 1387.822672 1844.514681 2232.436253 2565.485433 2912.347620 3336.633699 3861.390256 4471.085549 5156.310406 5873.390095 6563.373960 7227.852695 7887.070179 8519.356674 9069.876743 9542.885276 9975.385633 10377.241308 10641.785847 10691.084056 10691.084056 10691.084056 -0.125824 -0.125824 -0.125824 -0.129114 -0.170240 -0.282349 -0.439105 -0.644056 -0.883470 -1.170114 -1.519385 -1.948198 -2.475544 -3.123220 -3.916425 -4.884265 -6.060250 -7.482779 -9.195616 -11.248363 -13.696907 -16.603847 -20.038884 -24.079158 -28.809536 -34.322832 -40.719941 -48.109895 -56.609816 -66.344759 -77.447435 -90.057793 -104.322457 -120.393978 -138.429897 -158.591572 -181.042745 -205.947810 -233.469727 -263.767575 -296.993676 -333.290320 -372.786077 -415.591799 -461.796465 -511.463202 -564.626161 -621.289632 -681.432616 -745.026443 -812.084131 -882.786435 -957.785125 -1038.781956 -1129.658738 -1225.144857 -1316.512177 -1421.725622 -1546.219781 -1765.132678 -1557.515472 -713.234342 -653.522043 -938.901215 -511.708957 243.584831 58.126815 -312.734107 -635.737392 -413.121288 380.231080 251.148967 -249.560109 -608.113643 -123.116087 466.792813 51.659762 -404.295074 -147.721629 633.250870 547.060629 80.314573 -318.633488 -178.800405 693.160853 891.174036 573.439642 205.333252 208.885095 1103.467652 2076.720351 2402.827969 2491.355067 2643.650973 3062.074417 3703.049275 4313.882345 5089.486738 6012.334744 6696.232172 7235.459911 7847.991344 8518.685642 8917.306920 9221.101539 9656.871164 10228.860073 10636.665784 10707.588375 10707.588375 10707.588375 -0.109837 -0.109837 -0.109837 -0.112347 -0.141427 -0.219573 -0.366813 -0.612418 -0.866597 -1.156599 -1.505387 -1.932013 -2.456200 -3.099976 -3.888576 -4.851076 -6.020924 -7.436449 -9.141343 -11.185132 -13.623637 -16.519394 -19.942045 -23.968685 -28.684145 -34.181212 -40.560771 -47.931860 -56.411622 -66.125152 -77.205223 -89.791872 -104.031833 -120.077802 -138.087501 -158.222508 -180.646837 -205.525206 -233.020967 -263.293660 -296.496161 -332.771420 -372.248844 -415.040432 -461.237007 -510.905206 -564.086816 -620.804131 -681.080164 -744.995571 -812.836908 -885.474326 -965.323929 -1058.853643 -1183.750676 -1308.564601 -1427.671406 -1610.515683 -1911.181034 -2428.085869 -1733.507180 -149.630641 -530.717346 -1504.042392 -668.510914 963.670527 468.255200 -408.025623 -1310.114688 -902.709459 1119.287757 804.078072 -515.141373 -1639.823380 -292.489681 1507.683978 216.356165 -1535.594896 -872.149237 1859.707205 1280.861293 -71.204025 -1437.332963 -1400.743962 1558.639946 1751.836948 473.332271 -683.906110 -1726.836307 652.549608 3105.445597 2725.906142 2399.825605 2117.579163 2530.930328 4002.883383 4077.182467 4568.042196 6486.736575 7008.688718 7399.677347 7585.533873 8674.598695 8758.603988 8487.181451 8907.374885 10030.357918 10581.620073 10687.652670 10687.652670 10687.652670 -0.107672 -0.107672 -0.107672 -0.110069 -0.137590 -0.209792 -0.093371 -0.093371 -0.093371 -0.094915 -0.112513 -0.151209 -0.072547 -0.072547 -0.072547 -0.073228 -0.080437 -0.092658 -0.055189 -0.055189 -0.055189 -0.055444 -0.057969 -0.062115 -0.041434 -0.041434 -0.041434 -0.041510 -0.042239 -0.043520 -0.030825 -0.030825 -0.030825 -0.030835 -0.030927 -0.031202 -0.022773 -0.022773 -0.022773 -0.022763 -0.022656 -0.022601 -0.016727 -0.016727 -0.016727 -0.016712 -0.016565 -0.016423 -0.012221 -0.012221 -0.012221 -0.012208 -0.012071 -0.011927 -0.008885 -0.008885 -0.008885 -0.008873 -0.008762 -0.008640 -0.006428 -0.006428 -0.006428 -0.006419 -0.006332 -0.006236 -0.004628 -0.004628 -0.004628 -0.004621 -0.004556 -0.004483 -0.003317 -0.003317 -0.003317 -0.003312 -0.003263 -0.003208 -0.002366 -0.002366 -0.002366 -0.002362 -0.002326 -0.002285 -0.001679 -0.001679 -0.001679 -0.001677 -0.001650 -0.001621 -0.001187 -0.001187 -0.001187 -0.001185 -0.001165 -0.001144 -0.000834 -0.000834 -0.000834 -0.000833 -0.000819 -0.000804 -0.000584 -0.000584 -0.000584 -0.000583 -0.000573 -0.000562 -0.000407 -0.000407 -0.000407 -0.000406 -0.000399 -0.000391 -0.000282 -0.000282 -0.000282 -0.000282 -0.000277 -0.000271 -0.000195 -0.000195 -0.000195 -0.000194 -0.000191 -0.000187 -0.000134 -0.000134 -0.000134 -0.000134 -0.000131 -0.000128 -0.000091 -0.000091 -0.000091 -0.000091 -0.000090 -0.000088 -0.000062 -0.000062 -0.000062 -0.000062 -0.000061 -0.000060 -0.000042 -0.000042 -0.000042 -0.000042 -0.000041 -0.000040 -0.000028 -0.000028 -0.000028 -0.000028 -0.000028 -0.000027 -0.000019 -0.000019 -0.000019 -0.000019 -0.000019 -0.000018 -0.000013 -0.000013 -0.000013 -0.000013 -0.000012 -0.000012 -0.000008 -0.000008 -0.000008 -0.000008 -0.000008 -0.000008 -0.000006 -0.000006 -0.000006 -0.000006 -0.000005 -0.000005 -0.000004 -0.000004 -0.000004 -0.000004 -0.000004 -0.000004 -0.000002 -0.000002 -0.000002 -0.000002 -0.000002 -0.000002 -0.000002 -0.000002 -0.000002 -0.000002 -0.000002 -0.000002 -0.000001 -0.000001 -0.000001 -0.000001 -0.000001 -0.000001 -0.000001 -0.000001 -0.000001 -0.000001 -0.000001 -0.000001 -0.000000 -0.000000 -0.000000 -0.000000 -0.000000 -0.000000 -0.000000 -0.000000 -0.000000 -0.000000 -0.000000 -0.000000 -0.000000 -0.000000 -0.000000 -0.000000 -0.000000 -0.000000 -0.000000 -0.000000 -0.000000 -0.000000 -0.000000 -0.000000 -0.000000 -0.000000 -0.000000 -0.000000 -0.000000 -0.000000 -0.000000 -0.000000 -0.000000 -0.000000 -0.000000 -0.000000 -0.000000 -0.000000 -0.000000 -0.000000 -0.000000 -0.000000 -0.000000 -0.000000 -0.000000 -0.000000 -0.000000 -0.000000 -0.000000 -0.000000 -0.000000 -0.000000 -0.000000 -0.000000 -0.000000 -0.000000 -0.000000 -0.000000 -0.000000 -0.000000 -0.000000 -0.000000 -0.000000 -0.000000 -0.000000 -0.000000 -0.000000 -0.000000 -0.000000 -0.000000 -0.000000 -0.000000 -0.000000 -0.000000 -0.000000 -0.000000 -0.000000 -0.000000 -0.000000 -0.000000 -0.000000 -0.000000 -0.000000 -0.000000 -0.000000 -0.000000 -0.000000 -0.000000 -0.000000 -0.000000 -0.000000 -0.000000 -0.000000 -0.000000 -0.000000 -0.000000 -0.000000 -0.000000 -0.000000 -0.000000 -0.000000 -0.000000 -0.000000 -0.000000 -0.000000 -0.000000 -0.000000 -0.000000 -0.000000 -0.000000 -0.000000 -0.000000 -0.000000 -0.000000 -0.000000 -0.000000 -0.000000 -0.000000 -0.000000 -0.000000 -0.000000 -0.000000 -0.000000 -0.000000 -0.000000 -0.000000 -0.000000 -0.000000 -0.000000 -0.000000 -0.000000 -0.000000 -0.000000 -0.000000 -0.000000 -0.000000 -0.000000 -0.000000 -0.000000 -0.000000 -0.000000 -0.000000 -0.000000 -0.000000 -0.000000 -0.000000 -0.000000 -0.000000 -0.000000 -0.000000 -0.000000 -0.000000 -0.000000 -0.000000 -0.000000 -0.000000 -0.000000 -0.000000 -0.000000 -0.000000 -0.000000 -0.000000 -0.000000 -0.000000 -0.000000 -0.000000 -0.000000 -0.000000 -0.000000 -0.000000 -0.000000 -0.000000 -0.000000 -0.000000 -0.000000 -0.000000 -0.000000 -0.000000 -0.000000 -0.000000 -0.000000 -0.000000 -0.000000 -0.000000 -0.000000 -0.000000 -0.000000 -0.000000 -0.000000 -0.000000 -0.000000 -0.000000 -0.000000 -0.000000 -0.000000 -0.000000 -0.000000 -0.000000 -0.000000 -0.000000 -0.000000 -0.000000 -0.000000 -0.000000 -0.000000 -0.000000 -0.000000 -0.000000 -0.000000 -0.000000 -0.000000 -0.000000 -0.000000 -0.000000 -0.000000 -0.000000 -0.000000 -0.000000 -0.000000 -0.000000 -0.000000 -0.000000 -0.000000 -0.000000 -0.000000 -0.000000 -0.000000 -0.000000 -0.000000 -0.000000 -0.000000 -0.000000 -0.000000 -0.000000 -0.000000 -0.000000 -0.000000 -0.000000 -0.000000 -0.000000 -0.000000 -0.000000 -0.000000 -0.000000 -0.000000 -0.000000 -0.000000 -0.000000 -0.000000 -0.000000 -0.000000 -0.000000 -0.000000 -0.000000 -0.000000 -0.000000 -0.000000 -0.000000 -0.000000 -0.000000 -0.000000 -0.000000 -0.000000 -0.000000 -0.000000 -0.000000 -0.000000 -0.000000 -0.000000 -0.000000 -0.000000 -0.000000 -0.000000 -0.000000 -0.000000 -0.000000 -0.000000 -0.000000 -0.000000 -0.000000 -0.000000 -0.000000 -0.000000 -0.000000 -0.000000 -0.000000 -0.000000 -0.000000 -0.000000 -0.000000 -0.000000 -0.000000 -0.000000 -0.000000 -0.000000 -0.000000 -0.000000 -0.000000 -0.000000 -0.000000 -0.000000 -0.000000 -0.000000 -0.000000 -0.000000 -0.000000 -0.000000 -0.000000 -0.000000 -0.000000 -0.000000 -0.000000 -0.000000 -0.000000 -0.000000 -0.000000 -0.000000 -0.000000 -0.000000 -0.000000 -0.000000 -0.000000 -0.000000 -0.000000 -0.000000 -0.000000 -0.000000 -0.000000 -0.000000 -0.000000 -0.000000 -0.000000 -0.000000 -0.000000 -0.000000 -0.000000 -0.000000 -0.000000 -0.000000 -0.000000 -0.000000 -0.000000 -0.000000 -0.000000 -0.000000 -0.000000 -0.000000 -0.000000 -0.000000 -0.000000 -0.000000 -0.000000 -0.000000 -0.000000 -0.000000 -0.000000 -0.000000 -0.000000 -0.000000 -0.000000 -0.000000 -0.000000 -0.000000 -0.000000 -0.000000 -0.000000 -0.000000 -0.000000 -0.000000 -0.000000 -0.000000 -0.000000 -0.000000 -0.000000 -0.000000 -0.000000 -0.000000 -0.000000 -0.000000 -0.000000 -0.000000 -0.000000 -0.000000 -0.000000 -0.000000 -0.000000 -0.000000 -0.000000 -0.000000 -0.000000 -0.000000 -0.000000 -0.000000 -0.000000 -0.000000 -0.000000 -0.000000 -0.000000 -0.000000 -0.000000 -0.000000 -0.000000 -0.000000 -0.000000 -0.000000 -0.000000 -0.000000 -0.000000 -0.000000 -0.000000 -0.000000 -0.000000 -0.000000 -0.000000 -0.000000 -0.000000 -0.000000 -0.000000 -0.000000 -0.000000 -0.000000 -0.000000 -0.000000 -0.000000 -0.000000 -0.000000 -0.000000 -0.000000 -0.000000 -0.000000 -0.000000 -0.000000 -0.000000 -0.000000 -0.000000 -0.000000 -0.000000 -0.000000 -0.000000 -0.000000 -0.000000 -0.000000 -0.000000 -0.000000 -0.000000 -0.000000 -0.000000 -0.000000 -0.000000 -0.000000 -0.000000 -0.000000 -0.000000 -0.000000 -0.000000 -0.000000 -0.000000 -0.000000 -0.000000 -0.000000 -0.000000 -0.000000 -0.000000 -0.000000 -0.000000 -0.000000 -0.000000 -0.000000 -0.000000 -0.000000 -0.000000 -0.000000 -0.000000 -0.000000 -0.000000 -0.000000 -0.000000 -0.000000 -0.000000 -0.000000 -0.000000 -0.000000 -0.000000 -0.000000 -0.000000 -0.000000 -0.000000 -0.000000 -0.000000 -0.000000 -0.000000 -0.000000 -0.000000 -0.000000 -0.000000 -0.000000 -0.000000 -0.000000 -0.000000 -0.000000 -0.000000 -0.000000 -0.000000 -0.000000 -0.000000 -0.000000 -0.000000 -0.000000 -0.000000 -0.000000 -0.000000 -0.000000 -0.000000 -0.000000 -0.000000 -0.000000 -0.000000 -0.000000 -0.000000 -0.000000 -0.000000 -0.000000 -0.000000 -0.000000 -0.000000 -0.000000 -0.000000 -0.000000 -0.000000 -0.000000 -0.000000 -0.000000 -0.000000 -0.000000 -0.000000 -0.000000 -0.000000 -0.000000 -0.000000 -0.000000 -0.000000 -0.000000 -0.000000 -0.000000 -0.000000 -0.000000 -0.000000 -0.000000 -0.000000 -0.000000 -0.000000 -0.000000 -0.000000 -0.000000 -0.000000 -0.000000 -0.000000 -0.000000 -0.000000 -0.000000 -0.000000 -0.000000 -0.000000 -0.000000 -0.000000 -0.000000 -0.000000 -0.000000 -0.000000 -0.000000 -0.000000 -0.000000 -0.000000 -0.000000 -0.000000 -0.000000 -0.000000 -0.000000 -0.000000 -0.000000 -0.000000 -0.000000 -0.000000 -0.000000 -0.000000 -0.000000 -0.000000 -0.000000 -0.000000 -0.000000 -0.000000 -0.000000 -0.000000 -0.000000 -0.000000 -0.000000 -0.000000 -0.000000 -0.000000 -0.000000 -0.000000 -0.000000 -0.000000 -0.000000 -0.000000 -0.000000 -0.000000 -0.000000 -0.000000 -0.000000 -0.000000 -0.000000 -0.000000 -0.000000 -0.000000 -0.000000 -0.000000 -0.000000 -0.000000 -0.000000 -0.000000 -0.000000 -0.000000 -0.000000 -0.000000 -0.000000 -0.000000 -0.000000 -0.000000 -0.000000 -0.000000 -0.000000 -0.000000 -0.000000 -0.000000 -0.000000 -0.000000 -0.000000 -0.000000 -0.000000 -0.000000 -0.000000 -0.000000 -0.000000 -0.000000 -0.000000 -0.000000 -0.000000 -0.000000 -0.000000 -0.000000 -0.000000 -0.000000 -0.000000 -0.000000 -0.000000 -0.000000 -0.000000 -0.000000 -0.000000 -0.000000 -0.000000 -0.000000 -0.000000 -0.000000 -0.000000 -0.000000 -0.000000 -0.000000 -0.000000 -0.000000 -0.000000 -0.000000 -0.000000 -0.000000 -0.000000 -0.000000 -0.000000 -0.000000 -0.000000 -0.000000 -0.000000 -0.000000 -0.000000 -0.000000 -0.000000 -0.000000 -0.000000 -0.000000 -0.000000 -0.000000 -0.000000 -0.000000 -0.000000 -0.000000 -0.000000 -0.000000 -0.000000 -0.000000 -0.000000 -0.000000 -0.000000 -0.000000 -0.000000 -0.000000 -0.000000 -0.000000 -0.000000 -0.000000 -0.000000 -0.000000 -0.000000 -0.000000 -0.000000 -0.000000 -0.000000 -0.000000 -0.000000 -0.000000 -0.000000 -0.000000 -0.000000 -0.000000 -0.000000 -0.000000 -0.000000 -0.000000 -0.000000 -0.000000 -0.000000 -0.000000 -0.000000 -0.000000 -0.000000 -0.000000 -0.000000 -0.000000 -0.000000 -0.000000 -0.000000 -0.000000 -0.000000 -0.000000 -0.000000 -0.000000 -0.000000 -0.000000 -0.000000 -0.000000 -0.000000 -0.000000 -0.000000 -0.000000 -0.000000 0.000000 -0.000000 -0.000000 -0.000000 -0.000000 -0.000000 -0.000000 -0.000000 -0.000000 -0.000000 -0.000000 -0.000000 -0.000000 -0.000000 -0.000000 -0.000000 -0.000000 -0.000000 -0.000000 -0.000000 -0.000000 -0.000000 -0.000000 -0.000000 -0.000000 -0.000000 -0.000000 -0.000000 -0.000000 -0.000000 -0.000000 -0.000000 -0.000000 -0.000000 -0.000000 -0.000000 -0.000000 -0.000000 -0.000000 -0.000000 -0.000000 -0.000000 -0.000000 -0.000000 -0.000000 -0.000000 -0.000000 -0.000000 -0.000000 -0.000000 -0.000000 -0.000000 -0.000000 -0.000000 -0.000000 -0.000000 -0.000000 -0.000000 -0.000000 -0.000000 -0.000000 -0.000000 -0.000000 -0.000000 -0.000000 -0.000000 -0.000000 -0.000000 -0.000000 -0.000000 -0.000000 -0.000000 -0.000000 -0.000000 -0.000000 -0.000000 -0.000000 -0.000000 -0.000000 -0.000000 -0.000000 -0.000000 -0.000000 -0.000000 -0.000000 -0.000000 -0.000000 -0.000000 -0.000000 -0.000000 -0.000000 -0.000000 -0.000000 -0.000000 -0.000000 -0.000000 -0.000000 -0.000000 -0.000000 -0.000000 -0.000000 -0.000000 -0.000000 -0.000000 -0.000000 -0.000000 -0.000000 -0.000000 -0.000000 -0.000000 -0.000000 -0.000000 -0.000000 -0.000000 -0.000000 -0.000000 -0.000000 -0.000000 -0.000000 -0.000000 -0.000000 -0.000000 -0.000000 -0.000000 -0.000000 -0.000000 -0.000000 -0.000000 -0.000000 -0.000000 -0.000000 -0.000000 -0.000000 -0.000000 -0.000000 -0.000000 -0.000000 -0.000000 -0.000000 -0.000000 -0.000000 -0.000000 -0.000000 -0.000000 -0.000000 -0.000000 -0.000000 -0.000000 -0.000000 -0.000000 -0.000000 -0.000000 -0.000000 -0.000000 -0.000000 -0.000000 -0.000000 -0.000000 -0.000000 -0.000000 -0.000000 -0.000000 -0.000000 -0.000000 -0.000000 -0.000000 -0.000000 -0.000000 -0.000000 -0.000000 -0.000000 -0.000000 -0.000000 -0.000000 -0.000000 -0.000000 -0.000000 -0.000000 -0.000000 -0.000000 -0.000000 -0.000000 -0.000000 -0.000000 -0.000000 -0.000000 -0.000000 -0.000000 -0.000000 -0.000000 -0.000000 -0.000000 -0.000000 -0.000000 -0.000000 -0.000000 -0.000000 -0.000000 -0.000000 -0.000000 -0.000000 -0.000000 -0.000000 -0.000000 -0.000000 -0.000000 -0.000000 -0.000000 -0.000000 -0.000000 -0.000000 -0.000000 -0.000000 -0.000000 -0.000000 -0.000000 -0.000000 -0.000000 -0.000000 -0.000000 -0.000000 -0.000000 -0.000000 -0.000000 -0.000000 -0.000000 -0.000000 -0.000000 -0.000001 -0.000001 -0.000001 -0.000001 -0.000001 -0.000001 -0.000001 -0.000002 -0.000001 -0.000001 -0.000001 -0.000001 -0.000001 -0.000003 -0.000005 -0.000008 -0.000012 -0.000017 -0.000024 -0.000034 -0.000046 -0.000063 -0.000085 -0.000114 -0.000150 -0.000194 -0.000249 -0.000312 -0.000383 -0.000457 -0.000523 -0.000565 -0.000554 -0.000445 -0.000167 0.000388 0.001378 0.003034 0.005689 0.009815 0.016071 0.025373 0.038977 0.058588 0.086505 0.125793 0.180514 0.255997 0.359190 0.499072 0.687166 0.938148 1.270573 1.707732 2.278650 3.019241 3.973631 5.195656 6.750542 8.716770 11.188122 14.275916 18.111396 22.848298 28.665546 35.770096 44.399885 54.826928 67.360548 82.350872 100.192742 121.330442 146.263911 175.557570 209.853526 249.891686 296.540130 350.839954 414.070078 487.841661 574.247455 676.146935 797.851669 947.082112 1141.174012 1428.234721 1966.185297 3303.001027 8768.253309 12534.881749 12363.265201 12856.576719 12786.217439 12754.063693 12695.853191 12388.112863 12877.780168 15567.993760 13041.135944 13275.562475 15369.145117 17202.377368 17988.718911 18071.278268 20094.009557 20639.545047 21365.543370 23710.525556 25251.787118 26211.613398 28335.882655 24937.950135 26132.471834 26922.772962 21472.648976 18171.003121 17672.703164 17672.703164 17672.703164 -0.000001 -0.000001 -0.000001 -0.000001 -0.000002 -0.000003 -0.000005 -0.000008 -0.000012 -0.000017 -0.000024 -0.000034 -0.000047 -0.000064 -0.000086 -0.000115 -0.000151 -0.000196 -0.000250 -0.000313 -0.000384 -0.000456 -0.000520 -0.000557 -0.000540 -0.000421 -0.000127 0.000451 0.001474 0.003178 0.005902 0.010123 0.016513 0.025998 0.039850 0.059796 0.088160 0.128041 0.183541 0.260039 0.364545 0.506113 0.696356 0.950056 1.285895 1.727309 2.303495 3.050561 4.012854 5.244457 6.810872 8.790879 11.278590 14.385676 18.243756 23.006962 28.854634 35.994157 44.663918 55.136395 67.721413 82.769647 100.676598 121.887408 146.903227 176.290284 210.693422 250.856611 297.653686 352.133238 415.582520 489.618122 576.322630 678.485433 800.126876 947.851015 1134.712034 1391.917756 1803.662982 2601.371382 3976.898730 5474.640164 6401.545005 7248.632962 7577.281946 8206.138151 8408.327455 8983.214933 9867.396863 11421.084830 10118.799449 10965.816878 12997.381585 14613.851848 15418.527089 16265.837604 16935.929585 17514.971373 18118.207802 20095.763159 21821.238044 22583.382031 24528.909371 21672.795178 20375.082789 19795.916528 17346.271874 16334.197254 16132.763868 16132.763868 16132.763868 -0.000001 -0.000001 -0.000001 -0.000001 -0.000002 -0.000003 -0.000006 -0.000009 -0.000012 -0.000018 -0.000025 -0.000035 -0.000048 -0.000065 -0.000087 -0.000116 -0.000152 -0.000197 -0.000252 -0.000315 -0.000384 -0.000455 -0.000515 -0.000549 -0.000524 -0.000392 -0.000081 0.000524 0.001586 0.003346 0.006149 0.010482 0.017026 0.026722 0.040862 0.061196 0.090077 0.130643 0.187041 0.264712 0.370733 0.514245 0.706963 0.963794 1.303563 1.749876 2.332122 3.086635 4.058014 5.300626 6.880285 8.876119 11.382616 14.511847 18.395865 23.189252 29.071825 36.251462 44.967062 55.491640 68.135591 83.250233 101.231832 122.526536 147.636922 177.131346 211.657866 251.965227 298.934032 353.621811 417.326214 491.672532 578.739226 681.258861 802.993618 949.525140 1129.982146 1360.674648 1671.447963 2107.429862 2695.885043 3375.557346 4049.433578 4686.557394 5263.428301 5798.142320 6288.576943 6812.718647 7440.050375 8115.868209 8692.475699 9413.432745 10394.998900 11455.670540 12401.150857 13282.746951 14104.967714 14817.638251 15479.853768 16136.485627 16841.843707 17384.840583 17817.332272 17340.798155 16851.878825 16440.786649 15843.461460 15396.817169 15276.899800 15276.899800 15276.899800 -0.000001 -0.000001 -0.000001 -0.000001 -0.000002 -0.000003 -0.000006 -0.000009 -0.000012 -0.000018 -0.000025 -0.000035 -0.000048 -0.000065 -0.000087 -0.000116 -0.000153 -0.000198 -0.000252 -0.000315 -0.000384 -0.000454 -0.000515 -0.000547 -0.000521 -0.000387 -0.000072 0.000537 0.001606 0.003377 0.006194 0.010547 0.017118 0.026853 0.041045 0.061449 0.090423 0.131112 0.187673 0.265554 0.371848 0.515710 0.708874 0.966268 1.306744 1.753937 2.337273 3.093124 4.066136 5.310726 6.892764 8.891441 11.401311 14.534519 18.423192 23.221997 29.110834 36.297669 45.021494 55.555421 68.209946 83.336504 101.331499 122.641263 147.768632 177.282349 211.831058 252.164371 299.164125 353.889488 417.640066 492.042975 579.176747 681.766282 803.535575 949.910293 1129.416684 1356.139785 1652.531512 2046.682492 2552.343253 3142.567626 3764.178360 4376.050122 4953.187135 5494.251455 6008.250566 6543.009117 7141.100910 7784.220127 8424.735434 9156.807652 10040.104354 10991.840124 11914.598904 12794.181540 13608.744057 14330.202021 14972.112911 15583.022546 16153.083399 16610.906379 16852.146394 16781.791795 16513.708951 16139.395495 15665.380199 15251.971052 15162.794401 15162.794401 15162.794401 -0.000001 -0.000001 -0.000001 -0.000001 -0.000002 -0.000003 -0.000006 -0.000009 -0.000012 -0.000018 -0.000025 -0.000035 -0.000048 -0.000065 -0.000087 -0.000116 -0.000153 -0.000198 -0.000252 -0.000315 -0.000384 -0.000454 -0.000515 -0.000547 -0.000521 -0.000387 -0.000072 0.000537 0.001606 0.003377 0.006194 0.010547 0.017118 0.026853 0.041045 0.061449 0.090423 0.131112 0.187673 0.265554 0.371848 0.515710 0.708874 0.966268 1.306744 1.753937 2.337273 3.093124 4.066136 5.310726 6.892764 8.891441 11.401311 14.534519 18.423192 23.221997 29.110834 36.297669 45.021494 55.555421 68.209946 83.336504 101.331499 122.641263 147.768632 177.282349 211.831058 252.164371 299.164125 353.889488 417.640066 492.042975 579.176747 681.766282 803.535575 949.910293 1129.416684 1356.139785 1652.531512 2046.682492 2552.343253 3142.567626 3764.178360 4376.050122 4953.187135 5494.251455 6008.250566 6543.009117 7141.100910 7784.220127 8424.735434 9156.807652 10040.104354 10991.840124 11914.598904 12794.181540 13608.744057 14330.202021 14972.112911 15583.022546 16153.083399 16610.906379 16852.146394 16781.791795 16513.708951 16139.395495 15665.380199 15251.971052 15162.794401 15162.794401 15162.794401 -0.000001 -0.000001 -0.000001 -0.000001 -0.000002 -0.000003 -0.000006 -0.000009 -0.000012 -0.000018 -0.000025 -0.000035 -0.000048 -0.000065 -0.000087 -0.000116 -0.000153 -0.000198 -0.000252 -0.000315 -0.000384 -0.000454 -0.000515 -0.000547 -0.000521 -0.000387 -0.000072 0.000537 0.001606 0.003377 0.006194 0.010547 0.017118 0.026853 0.041045 0.061449 0.090423 0.131112 0.187673 0.265554 0.371848 0.515710 0.708874 0.966268 1.306744 1.753937 2.337273 3.093124 4.066136 5.310726 6.892764 8.891441 11.401311 14.534519 18.423192 23.221997 29.110834 36.297669 45.021494 55.555421 68.209946 83.336504 101.331499 122.641263 147.768632 177.282349 211.831058 252.164371 299.164125 353.889488 417.640066 492.042975 579.176747 681.766282 803.535575 949.910293 1129.416684 1356.139785 1652.531512 2046.682492 2552.343253 3142.567626 3764.178360 4376.050122 4953.187135 5494.251455 6008.250566 6543.009117 7141.100910 7784.220127 8424.735434 9156.807652 10040.104354 10991.840124 11914.598904 12794.181540 13608.744057 14330.202021 14972.112911 15583.022546 16153.083399 16610.906379 16852.146394 16781.791795 16513.708951 16139.395495 15665.380199 15251.971052 15162.794401 15162.794401 15162.794401 -1338.887311 -1466.949938 -1675.141649 -2036.760017 -2442.799719 -1241.172210 52.274133 -750.211584 -1575.052047 -247.232763 1075.585785 293.565391 -605.403096 -1534.747115 -556.183831 1369.847448 575.557451 -833.790147 -1776.779162 266.355234 1583.292536 -206.942134 -2021.221427 -319.118207 2302.487633 1067.170115 -352.368301 -1920.671939 -1045.546284 2197.936160 1627.432785 241.367131 -1184.834234 -2070.171354 1507.375191 3423.361070 2664.725613 2320.784042 1948.883939 2788.038488 4361.209580 3833.381631 4688.616360 6533.356792 7071.532062 7445.537635 7794.597767 9026.515938 8746.568959 8381.768393 8960.573749 10227.216758 10608.014247 10673.011975 10673.011975 10673.011975 -2052.930511 -259.829746 -157.578962 10682.725624 6598.426415 9671.097606 7392.609361 7905.956758 8447.092304 9345.044982 6678.968705 10642.703274 9289.107111 9193.277870 7821.631163 10459.797562 9479.402064 8129.084469 8898.303486 9212.848349 8754.105540 8705.003137 8093.419575 8505.798099 8904.989456 6016.167381 9841.952726 6973.177680 7014.667415 9643.329194 8321.567556 9624.436205 12043.730518 8913.831482 8373.146127 8743.144956 10421.075943 11905.215098 10238.358684 8849.814854 8693.602162 8239.744108 9678.471835 9563.423731 9111.294214 9120.400038 9222.060924 11001.892012 8910.545179 8492.515859 11472.028880 10612.975593 10549.065664 10503.204794 10503.204794 10503.204794 123.534930 98.635708 6143.591501 2510.420001 8742.994973 8302.545909 9827.069677 6718.873545 8812.093750 7600.009202 8557.110710 7838.758347 12455.330875 8575.158901 8124.933152 9220.065164 4756.795657 7598.822267 8400.196217 8745.602412 7961.401737 8694.197490 6660.014666 6663.588443 7683.657449 7434.593016 8265.182682 7471.157108 7820.395742 8659.467748 4629.512415 7642.795724 9140.180091 6917.307480 8344.275315 6472.731524 5043.119249 4923.347944 6784.738550 8003.918000 7523.551611 6925.217921 6056.821625 10255.185712 5987.081579 10981.554806 7990.769253 11040.055835 7467.582562 13537.964994 9235.999555 11245.295043 10384.788824 10192.188671 10192.188671 10192.188671 -195.871461 -810.402079 8212.611921 6385.941202 9948.672017 6187.704268 9554.812819 9017.172902 8979.668802 10281.665516 10524.105431 9823.652798 9555.353737 5628.147268 10536.367374 10168.450832 9825.029117 9448.131045 9621.867531 9081.069282 10346.830876 6756.531592 6973.425470 8653.274923 6854.207124 7975.772601 8755.674380 7473.753353 8434.367891 8906.993863 8956.731175 7368.707786 6562.395182 7616.668212 8842.867076 7066.732260 7944.957162 6439.429149 7406.666251 6058.351353 5486.704891 6008.741155 6977.244977 11436.922235 6302.746686 12435.929769 13733.946181 8941.336308 10822.643265 11206.513235 9775.751316 10109.099675 9835.698660 9906.253940 9906.253940 9906.253940 1454.938396 2549.680438 2136.145282 4760.484588 2969.542034 11680.198205 8047.366848 9265.254933 7109.434404 8311.789481 2435.901935 8987.097506 9041.858336 8980.656286 6369.989742 8941.647429 2955.654323 6205.320380 8686.500691 3880.461277 