<VTKFile type="PolyData">
<PolyData>
<Piece NumberOfPoints="8632" NumberOfVerts="8632" NumberOfLines="0" NumberOfStrips="0" NumberOfPolys="0">
<PointData>
<DataArray type="Float64" Name="Pressure" format="ascii">
 -0.000000 -0.000000 -0.000000 -0.000000 -0.000000 -0.000000 -0.000000 -0.000000 -0.000000 -0.000000 -0.000000 -0.000001 -0.000002 -0.000003 -0.000008 -0.000017 -0.000038 -0.000080 -0.000169 -0.000348 -0.000708 -0.001414 -0.002779 -0.005374 -0.010222 -0.019132 -0.035239 -0.063875 -0.113951 -0.200073 -0.345737 -0.587983 -0.984027 -1.620355 -2.624773 -4.181640 -6.550142 -10.084699 -15.255628 -22.666915 -33.066672 -47.344902 -66.513055 -91.660990 -123.889606 -164.221064 -213.491668 -272.232296 -340.534194 -417.881022 -502.900659 -592.955670 -683.451398 -766.690869 -829.996798 -853.685359 -812.831149 -688.008502 -508.424923 -371.265984 -294.151647 -185.491700 -63.354554 -27.183803 24.353176 238.908861 567.422488 951.264756 1352.488997 1672.068303 1999.955443 2332.340707 2693.302033 3108.017880 3524.273600 3951.319922 4406.105009 4866.593733 5326.421912 5800.574252 6288.667421 6786.682880 7293.890679 7808.155814 8327.884819 8850.554452 9373.547493 9894.468629 10409.469893 10916.153586 11413.717649 11899.139996 12367.158586 12812.262696 13236.733160 13638.027552 14006.824620 14331.374875 14601.818775 14799.095701 14885.930285 14849.304252 14668.758080 14265.581325 13583.570682 12672.631131 11674.327057 11000.778279 10877.366333 10877.366333 10877.366333 -0.000000 -0.000000 -0.000000 -0.000000 -0.000000 -0.000000 -0.000000 -0.000000 -0.000000 -0.000000 -0.000000 -0.000001 -0.000002 -0.000003 -0.000008 -0.000017 -0.000038 -0.000080 -0.000169 -0.000348 -0.000708 -0.001414 -0.002779 -0.005374 -0.010222 -0.019132 -0.035239 -0.063875 -0.113951 -0.200073 -0.345737 -0.587983 -0.984027 -1.620355 -2.624773 -4.181640 -6.550142 -10.084699 -15.255628 -22.666915 -33.066672 -47.344902 -66.513055 -91.660990 -123.889606 -164.221064 -213.491668 -272.232296 -340.534194 -417.881022 -502.900659 -592.955670 -683.451398 -766.690869 -829.996798 -853.685359 -812.831149 -688.008502 -508.424923 -371.265984 -294.151647 -185.491700 -63.354554 -27.183803 24.353176 238.908861 567.422488 951.264756 1352.488997 1672.068303 1999.955443 2332.340707 2693.302033 3108.017880 3524.273600 3951.319922 4406.105009 4866.593733 5326.421912 5800.574252 6288.667421 6786.682880 7293.890679 7808.155814 8327.884819 8850.554452 9373.547493 9894.468629 10409.469893 10916.153586 11413.717649 11899.139996 12367.158586 12812.262696 13236.733160 13638.027552 14006.824620 14331.374875 14601.818775 14799.095701 14885.930285 14849.304252 14668.758080 14265.581325 13583.570682 12672.631131 11674.327057 11000.778279 10877.366333 10877.366333 10877.366333 -0.000000 -0.000000 -0.000000 -0.000000 -0.000000 -0.000000 -0.000000 -0.000000 -0.000000 -0.000000 -0.000000 -0.000001 -0.000002 -0.000003 -0.000008 -0.000017 -0.000038 -0.000080 -0.000169 -0.000348 -0.000708 -0.001414 -0.002779 -0.005374 -0.010222 -0.019132 -0.035239 -0.063875 -0.113951 -0.200073 -0.345737 -0.587983 -0.984027 -1.620355 -2.624773 -4.181640 -6.550142 -10.084699 -15.255628 -22.666915 -33.066672 -47.344902 -66.513055 -91.660990 -123.889606 -164.221064 -213.491668 -272.232296 -340.534194 -417.881022 -502.900659 -592.955670 -683.451398 -766.690869 -829.996798 -853.685359 -812.831149 -688.008502 -508.424923 -371.265984 -294.151647 -185.491700 -63.354554 -27.183803 24.353176 238.908861 567.422488 951.264756 1352.488997 1672.068303 1999.955443 2332.340707 2693.302033 3108.017880 3524.273600 3951.319922 4406.105009 4866.593733 5326.421912 5800.574252 6288.667421 6786.682880 7293.890679 7808.155814 8327.884819 8850.554452 9373.547493 9894.468629 10409.469893 10916.153586 11413.717649 11899.139996 12367.158586 12812.262696 13236.733160 13638.027552 14006.824620 14331.374875 14601.818775 14799.095701 14885.930285 14849.304252 14668.758080 14265.581325 13583.570682 12672.631131 11674.327057 11000.778279 10877.366333 10877.366333 10877.366333 -0.000000 -0.000000 -0.000000 -0.000000 -0.000000 -0.000000 -0.000000 -0.000000 -0.000000 -0.000000 -0.000000 -0.000001 -0.000002 -0.000003 -0.000008 -0.000017 -0.000037 -0.000080 -0.000168 -0.000346 -0.000703 -0.001406 -0.002764 -0.005345 -0.010169 -0.019039 -0.035075 -0.063594 -0.113475 -0.199285 -0.344451 -0.585925 -0.980796 -1.615381 -2.617269 -4.170560 -6.534142 -10.062132 -15.224577 -22.625295 -33.012411 -47.276218 -66.428827 -91.561212 -123.775962 -164.097757 -213.366949 -272.121808 -340.468730 -417.924364 -503.189876 -593.790795 -685.491215 -771.358586 -839.782104 -871.579092 -838.416051 -706.775678 -487.355742 -350.392504 -312.045506 -205.319601 -39.887101 -64.526393 -83.994718 150.375035 499.099984 891.182339 1350.086926 1634.303077 1988.445923 2325.063152 2689.410644 3154.563247 3583.604229 4012.907210 4484.819378 4951.616179 5409.668516 5891.673061 6395.740548 6914.282503 7447.489391 7989.420474 8536.494503 9082.425012 9622.367640 10154.626389 10674.237758 11180.425063 11677.283768 12162.730666 12631.295473 13072.627873 13499.527019 13915.064129 14306.816401 14651.199614 14934.139405 15148.470685 15239.356798 15193.992352 15022.229992 14618.557769 13890.566095 12910.492963 11826.643407 11096.717196 10971.181244 10971.181244 10971.181244 -0.000000 -0.000000 -0.000000 -0.000000 -0.000000 -0.000000 -0.000000 -0.000000 -0.000000 -0.000000 -0.000000 -0.000001 -0.000001 -0.000003 -0.000007 -0.000016 -0.000035 -0.000074 -0.000156 -0.000324 -0.000660 -0.001324 -0.002609 -0.005059 -0.009652 -0.018117 -0.033460 -0.060814 -0.108774 -0.191473 -0.331707 -0.565515 -0.948724 -1.565967 -2.542677 -4.060337 -6.374867 -9.837321 -14.915031 -22.210094 -32.470740 -46.590128 -65.586916 -90.563204 -122.638393 -162.862118 -212.114555 -271.006328 -339.791645 -418.308973 -505.975351 -601.915876 -705.480609 -817.626313 -945.072725 -1079.024136 -1163.891355 -1085.067200 -195.459831 147.695487 -727.055580 -654.734586 583.343344 -378.419958 -1784.119389 -930.438107 185.120084 -492.431872 1914.684975 949.457607 1874.051015 2275.570848 2437.437357 3765.641982 4444.868996 4788.398737 5691.636832 6260.488856 6685.931386 7332.498524 8017.229960 8759.983280 9600.500062 10416.787133 11219.702401 11993.195432 12656.954257 13244.769106 13774.668347 14188.578682 14602.936030 15048.168696 15526.160781 15906.534489 16372.464936 16982.532710 17784.242213 18524.943783 18981.980744 19566.349255 19761.081168 19393.220789 19132.839356 18587.906794 17301.687707 16102.816497 14045.065379 12343.607136 12041.873729 12041.873729 12041.873729 -0.000000 -0.000000 -0.000000 -0.000000 -0.000000 -0.000000 -0.000000 -0.000000 -0.000000 -0.000000 -0.000000 -0.000001 -0.000001 -0.000003 -0.000007 -0.000015 -0.000032 -0.000068 -0.000145 -0.000300 -0.000614 -0.001235 -0.002442 -0.004751 -0.009091 -0.017113 -0.031698 -0.057772 -0.103617 -0.182884 -0.317656 -0.542954 -0.913183 -1.511068 -2.459590 -3.937245 -6.196540 -9.584980 -14.566712 -21.741760 -31.858371 -45.812937 -64.631753 -89.430220 -121.348510 -161.468494 -210.724507 -269.830026 -339.255228 -419.315819 -510.501026 -614.360972 -735.826453 -889.444453 -1118.410837 -1373.452243 -1673.112015 -1929.568919 -80.018984 980.268592 -1575.861480 -1779.369064 1623.169630 -611.288155 -5832.060652 -3015.538464 353.838912 -4590.190223 5322.457560 -2538.285409 1612.982589 3596.704624 -608.969895 5698.389993 5934.827630 5095.831798 8610.545365 9334.697896 10430.877306 11207.286812 12812.277337 13523.347891 14532.834236 15211.392828 15900.753391 16401.344835 16716.735249 17163.321768 17531.472874 17420.013991 17738.075286 17998.633460 19134.308829 19757.564850 20707.420998 21554.779112 23008.981013 24981.185329 25203.805706 25821.536500 27706.961820 25724.871836 22585.532729 22531.985112 22956.005543 23556.574296 18258.563871 14802.720319 13737.463102 13737.463102 13737.463102 -0.000000 -0.000000 -0.000000 -0.000000 -0.000000 -0.000000 -0.000000 -0.000000 -0.000000 -0.000000 -0.000000 -0.000000 -0.000000 -0.000000 -0.000000 -0.000000 0.000000 0.000000 0.000000 0.000000 0.000000 0.000000 0.000000 0.000000 0.000000 0.000000 0.000000 0.000000 0.000000 0.000000 0.000000 0.000000 0.000000 0.000000 0.000000 0.000000 0.000000 0.000000 0.000000 0.000000 0.000000 0.000000 0.000000 0.000000 0.000000 0.000000 0.000000 0.000000 0.000000 0.000000 0.000000 0.000000 0.000000 0.000000 0.000000 0.000000 0.000000 0.000000 0.000000 0.000000 0.000000 0.000000 0.000000 0.000000 0.000000 0.000000 0.000000 0.000000 0.000000 0.000000 0.000000 0.000000 0.000000 0.000000 0.000000 0.000000 0.000000 0.000000 0.000000 0.000000 0.000000 0.000000 0.000000 0.000000 0.000000 0.000000 0.000000 0.000000 0.000000 0.000000 0.000000 0.000000 0.000000 0.000000 0.000000 0.000000 0.000000 0.000000 0.000000 0.000000 0.000000 0.000000 0.000000 0.000000 0.000000 0.000000 0.000000 0.000000 0.000000 0.000000 0.000000 0.000000 0.000000 0.000000 0.000000 0.000000 0.000000 0.000000 0.000000 0.000000 0.000000 0.000000 0.000000 0.000000 0.000000 0.000000 0.000000 0.000000 0.000000 0.000000 0.000000 0.000000 0.000000 0.000000 0.000000 0.000000 0.000000 0.000000 0.000000 0.000000 0.000000 0.000000 0.000000 0.000000 0.000000 0.000000 0.000000 0.000000 0.000000 0.000000 0.000000 0.000000 0.000000 -0.000000 0.000000 0.000000 0.000000 0.000000 0.000000 -0.000000 0.000000 0.000000 0.000000 0.000000 0.000000 -0.000000 0.000000 0.000000 0.000000 0.000000 0.000000 -0.000000 0.000000 0.000000 0.000000 0.000000 0.000000 -0.000000 0.000000 0.000000 0.000000 0.000000 0.000000 -0.000000 0.000000 0.000000 0.000000 0.000000 0.000000 -0.000000 0.000000 0.000000 0.000000 0.000000 0.000000 -0.000000 0.000000 0.000000 0.000000 0.000000 0.000000 -0.000000 0.000000 0.000000 0.000000 0.000000 0.000000 -0.000000 0.000000 0.000000 0.000000 0.000000 0.000000 -0.000000 0.000000 0.000000 0.000000 0.000000 0.000000 -0.000000 0.000000 0.000000 0.000000 0.000000 0.000000 -0.000000 0.000000 0.000000 0.000000 0.000000 0.000000 0.000000 0.000000 0.000000 0.000000 0.000000 0.000000 -0.000000 -0.000000 0.000000 -0.000000 -0.000000 -0.000000 -0.000000 -0.000000 -0.000000 -0.000000 -0.000000 -0.000000 -0.000000 -0.000000 -0.000000 -0.000000 -0.000000 -0.000000 -0.000000 -0.000000 -0.000000 -0.000000 -0.000000 -0.000000 -0.000000 -0.000000 -0.000000 -0.000000 -0.000000 -0.000000 -0.000000 -0.000000 -0.000000 -0.000000 -0.000000 -0.000000 -0.000000 -0.000000 -0.000000 -0.000000 -0.000000 -0.000000 -0.000000 -0.000000 -0.000000 -0.000000 -0.000000 -0.000000 -0.000000 -0.000000 -0.000000 -0.000000 -0.000000 -0.000000 -0.000000 -0.000000 -0.000000 -0.000000 -0.000000 -0.000000 -0.000000 -0.000000 -0.000000 -0.000000 -0.000000 -0.000000 -0.000000 -0.000000 -0.000000 -0.000000 -0.000000 -0.000000 -0.000000 -0.000000 -0.000000 -0.000000 -0.000000 -0.000000 -0.000000 -0.000000 -0.000000 -0.000000 -0.000000 -0.000000 -0.000000 -0.000000 -0.000000 -0.000000 -0.000000 -0.000000 -0.000000 -0.000000 -0.000000 -0.000000 -0.000000 -0.000000 -0.000000 -0.000000 -0.000000 -0.000000 -0.000000 -0.000000 -0.000000 -0.000000 -0.000000 -0.000000 -0.000000 -0.000000 -0.000000 -0.000000 -0.000000 -0.000000 -0.000000 -0.000000 -0.000000 -0.000000 -0.000000 -0.000000 -0.000000 -0.000000 -0.000000 -0.000000 -0.000000 -0.000000 -0.000000 -0.000000 -0.000000 -0.000000 -0.000000 -0.000000 -0.000000 -0.000000 -0.000000 -0.000000 -0.000000 -0.000000 -0.000000 -0.000000 -0.000000 -0.000000 -0.000000 -0.000000 -0.000000 -0.000000 -0.000000 -0.000000 -0.000000 -0.000000 -0.000000 -0.000000 -0.000000 -0.000000 -0.000000 -0.000000 -0.000000 -0.000000 -0.000000 -0.000000 -0.000000 -0.000000 -0.000000 -0.000000 -0.000000 -0.000000 -0.000000 -0.000000 -0.000000 -0.000000 -0.000000 -0.000000 -0.000000 -0.000000 -0.000000 -0.000000 -0.000000 -0.000000 -0.000000 -0.000000 -0.000000 -0.000000 -0.000000 -0.000000 -0.000000 -0.000000 -0.000000 -0.000000 -0.000000 -0.000000 -0.000000 -0.000000 -0.000000 -0.000000 -0.000000 -0.000000 -0.000000 -0.000000 -0.000000 -0.000000 -0.000000 -0.000000 -0.000000 -0.000000 -0.000000 -0.000000 -0.000000 -0.000000 -0.000000 -0.000000 -0.000000 -0.000000 -0.000000 -0.000000 -0.000000 -0.000000 -0.000000 -0.000000 -0.000000 -0.000000 -0.000000 -0.000000 -0.000000 -0.000000 -0.000000 -0.000000 -0.000000 -0.000000 -0.000000 -0.000000 -0.000000 -0.000000 -0.000000 -0.000000 -0.000000 -0.000000 -0.000000 -0.000000 -0.000000 -0.000000 -0.000000 -0.000000 -0.000000 -0.000000 -0.000000 -0.000000 -0.000000 -0.000000 -0.000000 -0.000000 -0.000000 -0.000000 -0.000000 -0.000000 -0.000000 -0.000000 -0.000000 -0.000000 -0.000000 -0.000000 -0.000000 -0.000000 -0.000000 -0.000000 -0.000000 -0.000000 -0.000000 -0.000000 -0.000000 -0.000000 -0.000000 -0.000000 -0.000000 -0.000000 -0.000000 -0.000000 -0.000000 -0.000000 -0.000000 -0.000000 -0.000000 -0.000000 -0.000000 -0.000000 -0.000000 -0.000000 -0.000000 -0.000000 -0.000000 -0.000000 -0.000000 -0.000000 -0.000000 -0.000000 -0.000000 -0.000000 -0.000000 -0.000000 -0.000000 -0.000000 -0.000000 -0.000000 -0.000000 -0.000000 -0.000000 -0.000000 -0.000000 -0.000000 -0.000000 -0.000000 -0.000000 -0.000000 -0.000000 -0.000000 -0.000000 -0.000000 -0.000000 -0.000000 -0.000000 -0.000000 -0.000000 -0.000000 -0.000000 -0.000000 -0.000000 -0.000000 -0.000000 -0.000000 -0.000000 -0.000000 -0.000000 -0.000000 -0.000000 -0.000000 -0.000000 -0.000000 -0.000000 -0.000000 -0.000000 -0.000000 -0.000000 -0.000000 -0.000000 -0.000000 -0.000000 -0.000000 -0.000000 -0.000000 -0.000000 -0.000000 -0.000000 -0.000000 -0.000000 -0.000000 -0.000000 -0.000000 -0.000000 -0.000000 -0.000000 -0.000000 -0.000000 -0.000000 -0.000000 -0.000000 -0.000000 -0.000000 -0.000000 -0.000000 -0.000000 -0.000000 -0.000000 -0.000000 -0.000000 -0.000000 -0.000000 -0.000000 -0.000000 -0.000000 -0.000000 -0.000000 -0.000000 -0.000000 -0.000000 -0.000000 -0.000000 -0.000000 -0.000000 -0.000000 -0.000000 -0.000000 -0.000000 -0.000000 -0.000000 -0.000000 -0.000000 -0.000000 -0.000000 -0.000000 -0.000000 -0.000000 -0.000000 -0.000000 -0.000000 -0.000000 -0.000000 -0.000000 -0.000000 -0.000000 -0.000000 -0.000000 -0.000000 -0.000000 -0.000000 -0.000000 -0.000000 -0.000000 -0.000000 -0.000000 -0.000000 -0.000000 -0.000000 -0.000000 -0.000000 -0.000000 -0.000000 -0.000000 -0.000000 -0.000000 -0.000000 -0.000000 -0.000000 -0.000000 -0.000000 -0.000000 -0.000000 -0.000000 -0.000000 -0.000000 -0.000000 -0.000000 -0.000000 -0.000000 -0.000000 -0.000000 -0.000000 -0.000000 -0.000000 -0.000000 -0.000000 -0.000000 -0.000000 -0.000000 -0.000000 -0.000000 -0.000000 -0.000000 -0.000000 -0.000000 -0.000000 -0.000000 -0.000000 -0.000000 -0.000000 -0.000000 -0.000000 -0.000000 -0.000000 -0.000000 -0.000000 -0.000000 -0.000000 -0.000000 -0.000000 -0.000000 -0.000000 -0.000000 -0.000000 -0.000000 -0.000000 -0.000000 -0.000000 -0.000000 -0.000000 -0.000000 -0.000000 -0.000000 -0.000000 -0.000000 -0.000000 -0.000000 -0.000000 -0.000000 -0.000000 -0.000000 -0.000000 -0.000000 -0.000000 -0.000000 -0.000000 -0.000000 -0.000000 -0.000000 -0.000000 -0.000000 -0.000000 -0.000000 -0.000000 -0.000000 -0.000000 -0.000000 -0.000000 -0.000000 -0.000000 -0.000000 -0.000000 -0.000000 -0.000000 -0.000000 -0.000000 -0.000000 -0.000000 -0.000000 -0.000000 -0.000000 -0.000000 -0.000000 -0.000000 -0.000000 -0.000000 -0.000000 -0.000000 -0.000000 -0.000000 -0.000000 -0.000000 -0.000000 -0.000000 -0.000000 -0.000000 -0.000000 -0.000000 -0.000000 -0.000000 -0.000000 -0.000000 -0.000000 -0.000000 -0.000000 -0.000000 -0.000000 -0.000000 -0.000000 -0.000000 -0.000000 -0.000000 -0.000000 -0.000000 -0.000000 -0.000000 -0.000000 -0.000000 -0.000000 -0.000000 -0.000000 -0.000000 -0.000000 -0.000000 -0.000000 -0.000000 -0.000000 -0.000000 -0.000000 -0.000000 -0.000000 -0.000000 -0.000000 -0.000000 -0.000000 -0.000000 -0.000000 -0.000000 -0.000000 -0.000000 -0.000000 -0.000000 -0.000000 -0.000000 -0.000000 -0.000000 -0.000000 -0.000000 -0.000000 -0.000000 -0.000000 -0.000000 -0.000000 -0.000000 -0.000000 -0.000000 -0.000000 -0.000000 -0.000000 -0.000000 -0.000000 -0.000000 -0.000000 -0.000000 -0.000000 -0.000000 -0.000000 -0.000000 -0.000000 -0.000000 -0.000000 -0.000000 -0.000000 -0.000000 -0.000000 -0.000000 -0.000000 -0.000000 -0.000000 -0.000000 -0.000000 -0.000000 -0.000000 -0.000000 -0.000000 -0.000000 -0.000000 -0.000000 -0.000000 -0.000000 -0.000000 -0.000000 -0.000000 -0.000000 -0.000000 -0.000000 -0.000000 -0.000000 -0.000000 -0.000000 -0.000000 -0.000000 -0.000000 -0.000000 -0.000000 -0.000000 -0.000000 -0.000000 -0.000000 -0.000000 -0.000000 -0.000000 -0.000000 -0.000000 -0.000000 -0.000000 -0.000000 -0.000000 -0.000000 -0.000000 -0.000000 -0.000000 -0.000000 -0.000000 -0.000000 -0.000000 -0.000000 -0.000000 -0.000000 -0.000000 -0.000000 -0.000000 -0.000000 -0.000000 -0.000000 -0.000000 -0.000000 -0.000000 -0.000000 -0.000000 -0.000000 -0.000000 -0.000000 -0.000000 -0.000000 -0.000000 -0.000000 -0.000000 -0.000000 -0.000000 -0.000000 -0.000000 -0.000000 -0.000000 -0.000000 -0.000000 -0.000000 -0.000000 -0.000000 -0.000000 -0.000000 -0.000000 -0.000000 -0.000000 -0.000000 -0.000000 -0.000000 -0.000000 -0.000000 -0.000000 -0.000000 -0.000000 -0.000000 -0.000000 -0.000000 -0.000000 -0.000000 -0.000000 -0.000000 -0.000000 -0.000000 -0.000000 -0.000000 -0.000000 -0.000000 -0.000000 0.000000 -0.000000 -0.000000 -0.000000 -0.000000 -0.000000 -0.000000 -0.000000 -0.000000 -0.000000 -0.000000 -0.000000 -0.000000 -0.000000 -0.000000 -0.000000 -0.000000 -0.000000 -0.000000 -0.000000 -0.000000 -0.000000 -0.000000 -0.000000 -0.000000 -0.000000 -0.000000 -0.000000 -0.000000 -0.000000 -0.000000 -0.000000 -0.000000 -0.000000 -0.000000 -0.000000 -0.000000 -0.000000 -0.000000 -0.000000 -0.000000 -0.000000 -0.000000 -0.000000 -0.000000 -0.000000 -0.000000 -0.000000 -0.000000 -0.000000 -0.000000 -0.000000 -0.000000 -0.000000 -0.000000 -0.000000 -0.000000 -0.000000 -0.000000 -0.000000 -0.000000 -0.000000 -0.000000 -0.000000 -0.000000 -0.000000 -0.000000 -0.000000 -0.000000 -0.000000 -0.000000 -0.000000 -0.000000 -0.000000 -0.000000 -0.000000 -0.000000 -0.000000 -0.000000 -0.000000 -0.000000 -0.000000 -0.000000 -0.000000 -0.000000 -0.000000 -0.000000 -0.000000 -0.000000 -0.000000 -0.000000 -0.000000 -0.000000 -0.000000 -0.000000 -0.000000 -0.000000 -0.000000 -0.000000 -0.000000 -0.000000 -0.000000 -0.000000 -0.000000 -0.000000 -0.000000 -0.000000 -0.000000 -0.000000 -0.000000 -0.000000 -0.000000 -0.000000 -0.000000 -0.000000 -0.000000 -0.000000 -0.000000 -0.000000 -0.000000 -0.000000 -0.000000 -0.000000 -0.000000 -0.000000 -0.000000 -0.000000 -0.000000 -0.000000 -0.000000 -0.000000 -0.000000 -0.000000 -0.000000 -0.000000 -0.000000 -0.000000 -0.000000 -0.000000 -0.000000 -0.000000 -0.000000 -0.000000 -0.000000 -0.000000 -0.000000 -0.000000 -0.000000 -0.000000 -0.000000 -0.000000 -0.000000 -0.000000 -0.000000 -0.000000 -0.000000 -0.000000 -0.000000 -0.000000 -0.000000 -0.000000 -0.000000 -0.000000 -0.000000 -0.000000 -0.000000 -0.000000 -0.000000 -0.000000 -0.000000 -0.000000 -0.000000 -0.000000 -0.000000 -0.000000 -0.000000 -0.000000 -0.000000 -0.000000 -0.000000 -0.000000 -0.000000 -0.000000 -0.000000 -0.000000 -0.000000 -0.000000 -0.000000 -0.000000 -0.000000 -0.000000 -0.000000 -0.000000 -0.000000 -0.000000 -0.000000 -0.000000 -0.000000 -0.000000 -0.000000 -0.000000 -0.000000 -0.000000 -0.000000 -0.000000 -0.000000 -0.000000 -0.000000 -0.000000 -0.000000 -0.000000 -0.000000 -0.000000 -0.000000 -0.000000 -0.000000 -0.000000 -0.000000 -0.000000 -0.000000 -0.000000 0.000000 -0.000000 0.000000 -0.000000 -0.000000 -0.000000 -0.000000 0.000000 0.000000 -0.000000 -0.000000 -0.000000 0.000000 -0.000000 0.000000 0.000000 0.000000 0.000000 0.000000 -0.000000 -0.000000 -0.000000 -0.000000 -0.000000 -0.000000 -0.000000 -0.000000 -0.000000 -0.000000 -0.000000 -0.000000 -0.000000 -0.000000 -0.000000 -0.000000 -0.000000 -0.000000 -0.000000 -0.000000 -0.000000 -0.000000 -0.000000 -0.000000 -0.000000 -0.000000 -0.000000 -0.000000 -0.000000 -0.000000 -0.000000 -0.000000 -0.000000 -0.000000 -0.000000 -0.000000 -0.000000 -0.000001 -0.000001 -0.000003 -0.000007 -0.000016 -0.000034 -0.000073 -0.000152 -0.000312 -0.000625 -0.001227 -0.002361 -0.004451 -0.008215 -0.014837 -0.026213 -0.045277 -0.076417 -0.125940 -0.202525 -0.317528 -0.484923 -0.720605 -1.040736 -1.458875 -1.981779 -2.604126 -3.302809 -4.031713 -4.717580 -5.255569 -5.498321 -5.222759 -4.043517 -1.221441 4.704657 16.543992 39.398146 81.876534 157.065939 281.022576 462.611344 674.381524 791.427921 112.321108 -1294.147663 -186.356465 234.088037 -201.306461 -298.826828 -503.112357 -578.480204 -1120.964079 -1147.972330 -748.508177 -442.708525 -890.897857 2220.286247 2555.462329 1522.647036 2650.472797 4201.740627 5125.814815 5144.087567 5075.588979 6089.537784 9579.575210 10408.534501 10408.534501 10408.534501 0.000000 0.000000 0.000000 0.000000 -0.000000 -0.000000 -0.000000 -0.000000 -0.000000 -0.000000 -0.000000 -0.000000 -0.000000 -0.000000 -0.000000 -0.000000 -0.000000 -0.000000 -0.000000 -0.000000 -0.000000 -0.000000 -0.000000 -0.000000 -0.000000 -0.000000 -0.000000 -0.000000 -0.000000 -0.000000 -0.000000 -0.000000 -0.000000 -0.000000 -0.000000 -0.000000 -0.000000 -0.000000 -0.000000 -0.000000 -0.000000 -0.000001 -0.000002 -0.000003 -0.000008 -0.000017 -0.000037 -0.000079 -0.000163 -0.000333 -0.000665 -0.001302 -0.002496 -0.004688 -0.008621 -0.015515 -0.027315 -0.047016 -0.079075 -0.129871 -0.208132 -0.325210 -0.494985 -0.733110 -1.055323 -1.474548 -1.996721 -2.615597 -3.307155 -4.024437 -4.693176 -5.206469 -5.411772 -5.074191 -3.785866 -0.774121 5.451823 17.670893 40.749297 82.556478 154.511814 270.168660 438.025377 643.847216 819.564200 859.791510 805.385362 1247.742508 1773.231738 1969.773141 2246.999928 2509.582271 2774.324231 2956.146662 3295.732387 3802.310777 4176.102298 4256.857692 5104.062397 5419.240598 5005.617042 5060.019651 5876.843183 5740.505873 6564.692478 7343.749471 7769.176721 9224.996220 9506.473370 9506.473370 9506.473370 0.000000 0.000000 0.000000 0.000000 0.000000 0.000000 0.000000 0.000000 -0.000000 0.000000 0.000000 0.000000 0.000000 0.000000 -0.000000 -0.000000 -0.000000 -0.000000 -0.000000 -0.000000 -0.000000 -0.000000 -0.000000 -0.000000 -0.000000 -0.000000 -0.000000 -0.000000 -0.000000 -0.000000 -0.000000 -0.000000 -0.000000 -0.000000 -0.000000 -0.000000 -0.000000 -0.000000 -0.000000 -0.000000 -0.000000 -0.000001 -0.000002 -0.000004 -0.000009 -0.000019 -0.000041 -0.000085 -0.000177 -0.000359 -0.000713 -0.001391 -0.002656 -0.004969 -0.009101 -0.016314 -0.028607 -0.049048 -0.082171 -0.134432 -0.214612 -0.334054 -0.506519 -0.747381 -1.071889 -1.492244 -2.013462 -2.628277 -3.311663 -4.015735 -4.665070 -5.150305 -5.312668 -4.903094 -3.486578 -0.248729 6.344068 19.061015 42.566253 84.051162 153.403915 261.993479 418.649808 622.506417 858.582880 1113.255591 1417.711606 1833.549677 2333.171450 2864.356723 3432.053896 4033.718428 4651.413083 5280.680069 5939.421718 6617.073109 7270.874748 7887.086422 8453.277677 8834.547991 9051.789358 9254.807563 9419.258187 9310.790949 9335.370431 9331.482381 9140.039061 9034.456365 9006.826055 9006.826055 9006.826055 -0.000000 -0.000000 -0.000000 -0.000000 -0.000000 0.000000 0.000000 -0.000000 -0.000000 0.000000 0.000000 0.000000 0.000000 0.000000 -0.000000 -0.000000 -0.000000 -0.000000 -0.000000 -0.000000 -0.000000 -0.000000 -0.000000 -0.000000 -0.000000 -0.000000 -0.000000 -0.000000 -0.000000 -0.000000 -0.000000 -0.000000 -0.000000 -0.000000 -0.000000 -0.000000 -0.000000 -0.000000 -0.000000 -0.000000 -0.000000 -0.000001 -0.000002 -0.000004 -0.000009 -0.000019 -0.000041 -0.000087 -0.000179 -0.000363 -0.000722 -0.001407 -0.002685 -0.005020 -0.009188 -0.016459 -0.028843 -0.049416 -0.082732 -0.135256 -0.215780 -0.335644 -0.508587 -0.749935 -1.074844 -1.495390 -2.016426 -2.630503 -3.312423 -4.014134 -4.660007 -5.140223 -5.294858 -4.872231 -3.432318 -0.152892 6.508267 19.321156 42.920426 84.392416 153.386116 260.937036 415.972730 619.854254 864.476300 1144.390375 1478.309630 1897.575445 2399.217461 2958.207784 3564.373824 4206.544587 4868.736117 5545.051562 6240.466762 6948.080855 7643.408412 8298.947307 8871.935170 9295.315216 9578.643220 9785.120579 9899.087435 9865.972353 9739.688968 9547.507047 9251.463666 8992.255312 8937.792176 8937.792176 8937.792176 -0.000000 -0.000000 -0.000000 -0.000000 -0.000000 0.000000 0.000000 -0.000000 0.000000 0.000000 0.000000 0.000000 0.000000 0.000000 -0.000000 -0.000000 -0.000000 -0.000000 -0.000000 -0.000000 -0.000000 -0.000000 -0.000000 -0.000000 -0.000000 -0.000000 -0.000000 -0.000000 -0.000000 -0.000000 -0.000000 -0.000000 -0.000000 -0.000000 -0.000000 -0.000000 -0.000000 -0.000000 -0.000000 -0.000000 -0.000000 -0.000001 -0.000002 -0.000004 -0.000009 -0.000019 -0.000041 -0.000087 -0.000179 -0.000363 -0.000722 -0.001407 -0.002685 -0.005020 -0.009188 -0.016459 -0.028843 -0.049416 -0.082732 -0.135256 -0.215780 -0.335644 -0.508587 -0.749935 -1.074844 -1.495390 -2.016426 -2.630503 -3.312423 -4.014134 -4.660007 -5.140223 -5.294858 -4.872231 -3.432318 -0.152892 6.508267 19.321156 42.920426 84.392416 153.386116 260.937036 415.972730 619.854254 864.476300 1144.390375 1478.309630 1897.575445 2399.217461 2958.207784 3564.373824 4206.544587 4868.736117 5545.051562 6240.466762 6948.080855 7643.408412 8298.947307 8871.935170 9295.315216 9578.643220 9785.120579 9899.087435 9865.972353 9739.688968 9547.507047 9251.463666 8992.255312 8937.792176 8937.792176 8937.792176 -0.000000 -0.000000 -0.000000 -0.000000 -0.000000 0.000000 0.000000 -0.000000 0.000000 0.000000 0.000000 0.000000 0.000000 0.000000 -0.000000 -0.000000 -0.000000 -0.000000 -0.000000 -0.000000 -0.000000 -0.000000 -0.000000 -0.000000 -0.000000 -0.000000 -0.000000 -0.000000 -0.000000 -0.000000 -0.000000 -0.000000 -0.000000 -0.000000 -0.000000 -0.000000 -0.000000 -0.000000 -0.000000 -0.000000 -0.000000 -0.000001 -0.000002 -0.000004 -0.000009 -0.000019 -0.000041 -0.000087 -0.000179 -0.000363 -0.000722 -0.001407 -0.002685 -0.005020 -0.009188 -0.016459 -0.028843 -0.049416 -0.082732 -0.135256 -0.215780 -0.335644 -0.508587 -0.749935 -1.074844 -1.495390 -2.016426 -2.630503 -3.312423 -4.014134 -4.660007 -5.140223 -5.294858 -4.872231 -3.432318 -0.152892 6.508267 19.321156 42.920426 84.392416 153.386116 260.937036 415.972730 619.854254 864.476300 1144.390375 1478.309630 1897.575445 2399.217461 2958.207784 3564.373824 4206.544587 4868.736117 5545.051562 6240.466762 6948.080855 7643.408412 8298.947307 8871.935170 9295.315216 9578.643220 9785.120579 9899.087435 9865.972353 9739.688968 9547.507047 9251.463666 8992.255312 8937.792176 8937.792176 8937.792176 -1447.891073 -1823.997497 -1853.910602 388.117938 687.012609 -2233.251117 -1291.057282 1853.131675 -1931.189238 -7259.295629 -1580.265872 -1419.074237 -3683.991478 6100.488927 -5559.979482 4129.484993 1232.937928 -1023.018349 6784.748960 5633.401151 5651.604145 9548.381080 10377.569975 11343.648754 12871.773170 14119.196137 14901.447636 15869.079536 16240.359599 16688.563862 17140.911247 17229.346393 17576.525697 17930.366953 17593.199874 18101.799328 18308.989984 19833.322300 20523.984025 21622.987526 22775.529299 24243.375394 26388.908791 25801.113676 27159.964363 29247.345493 25161.406922 22539.559937 23020.032443 25313.044167 23433.033490 17201.742145 14722.757625 14005.089411 14005.089411 14005.089411 620.749097 513.120180 -974.287508 2278.289980 7475.353135 10303.003490 11499.098924 13065.960430 15677.732868 18292.125163 18800.723671 19744.762216 21020.765841 21772.091523 21805.295315 21847.130805 22012.976201 22486.549494 22753.151557 22730.520033 22805.007471 23077.033838 22746.411207 22492.449631 22953.694351 23396.733496 23881.167808 24761.717468 26312.249323 26527.773007 28010.163406 29612.992279 30755.360506 31643.126526 31722.338433 32918.445941 32721.190394 31899.277200 31892.709597 33199.467384 33925.231981 31268.466865 36339.990570 41456.790284 35703.610630 47018.582618 37756.662107 30658.085498 48240.067516 27132.889459 29853.512978 11910.562111 15670.746146 15893.793849 15893.793849 15893.793849 4032.681913 -396.638843 2351.946869 7693.125737 6043.154431 9662.003978 11074.800368 14237.378562 15622.515168 17131.800057 18324.544458 20563.194955 21901.524104 22951.878501 24101.428211 25213.340832 25956.206302 26353.535556 26718.514476 27105.843034 27704.747865 27632.407614 26919.239740 26897.998795 28005.860468 29080.475123 29864.757774 31333.641991 32606.699310 33227.880374 33051.389856 34589.050383 33998.557261 35121.200521 35682.845600 36122.559128 36957.122639 39116.215467 39419.233161 37575.675269 41659.087155 39065.582028 39523.337084 28213.072697 40683.035472 42302.224444 42306.699981 41243.946213 37451.566021 33639.824952 23796.842143 20904.333413 19080.190075 18542.488858 18542.488858 18542.488858 628.612746 2504.649560 3908.645907 6162.673233 7899.255702 10908.729650 12672.546607 16221.421198 17114.525660 19386.179451 21087.875883 22541.606755 23724.702114 25494.927628 27146.187513 28256.219883 29039.671071 29629.916870 30241.044862 30506.076245 30373.104437 30655.706436 30559.065196 30295.107030 31145.077990 31865.919864 33801.437145 35706.375915 38009.653736 38500.188418 37997.447175 37478.093216 38457.486105 39555.613661 38827.820467 38980.737759 39427.435695 40465.777330 42021.995827 42388.216210 44083.949301 44787.070874 40277.328423 44155.214155 42198.815035 38059.000983 46082.515248 40751.724003 43560.475993 33340.291690 31448.250279 30882.994480 22191.713800 20754.098287 20754.098287 20754.098287 649.103640 1316.530078 3690.675109 5733.712300 8197.862539 10305.263958 12499.070538 14679.291515 16426.631172 18190.215562 19401.843276 21203.776547 22947.077780 24830.633036 26712.333018 28449.900507 29595.736953 30104.715815 30444.316604 30914.398621 31289.835404 31845.868364 32424.035613 32542.073764 33531.231973 34886.717548 36605.224123 38910.291511 40762.271543 40678.914877 40991.302898 41638.334213 41092.410938 40578.467799 43021.438810 43949.339632 46751.407380 45998.385112 45810.811560 45651.114853 47372.471540 45