<VTKFile type="PolyData">
<PolyData>
<Piece NumberOfPoints="8632" NumberOfVerts="8632" NumberOfLines="0" NumberOfStrips="0" NumberOfPolys="0">
<PointData>
<DataArray type="Float64" Name="Pressure" format="ascii">
 -8.105642 -8.105642 -8.105642 -8.186900 -9.097580 -11.444559 -14.096805 -17.106642 -20.451924 -24.128752 -28.157423 -32.572088 -37.414145 -42.729181 -48.565728 -54.974753 -62.009427 -69.724992 -78.178647 -87.429408 -97.537957 -108.566436 -120.578219 -133.637634 -147.809638 -163.159459 -179.752179 -197.652283 -216.923159 -237.626561 -259.822026 -283.566273 -308.912569 -335.910083 -364.603239 -395.031074 -427.226617 -461.216296 -497.019363 -534.647344 -574.103467 -615.382036 -658.467668 -703.334275 -749.943667 -798.243592 -848.164990 -899.618181 -952.487519 -1006.623540 -1061.830264 -1117.841727 -1174.273166 -1230.517470 -1285.547066 -1337.858022 -1386.005043 -1428.792018 -1464.148027 -1487.653247 -1490.779285 -1458.513786 -1365.145667 -1196.264315 -1004.120359 -855.404829 -728.396689 -567.085873 -390.816848 -278.697142 -235.250713 -201.839051 -117.330220 27.744251 158.024567 222.847296 250.379928 291.293315 396.153669 613.576830 955.033790 1362.684313 1777.152629 2186.409846 2600.527259 3032.399494 3490.457546 3968.373558 4454.137564 4950.048752 5465.221740 6002.536318 6555.368007 7116.390925 7681.839310 8248.672020 8822.653993 9410.097895 9998.774833 10566.575051 11092.779915 11562.386784 11977.409949 12337.023470 12631.263882 12857.171427 13019.336701 13106.891199 13122.125562 13122.125562 13122.125562 -8.105642 -8.105642 -8.105642 -8.186900 -9.097580 -11.444559 -14.096805 -17.106642 -20.451924 -24.128752 -28.157423 -32.572088 -37.414145 -42.729181 -48.565728 -54.974753 -62.009427 -69.724992 -78.178647 -87.429408 -97.537957 -108.566436 -120.578219 -133.637634 -147.809638 -163.159459 -179.752179 -197.652283 -216.923159 -237.626561 -259.822026 -283.566273 -308.912569 -335.910083 -364.603239 -395.031074 -427.226617 -461.216296 -497.019363 -534.647344 -574.103467 -615.382036 -658.467668 -703.334275 -749.943667 -798.243592 -848.164990 -899.618181 -952.487519 -1006.623540 -1061.830264 -1117.841727 -1174.273166 -1230.517470 -1285.547066 -1337.858022 -1386.005043 -1428.792018 -1464.148027 -1487.653247 -1490.779285 -1458.513786 -1365.145667 -1196.264315 -1004.120359 -855.404829 -728.396689 -567.085873 -390.816848 -278.697142 -235.250713 -201.839051 -117.330220 27.744251 158.024567 222.847296 250.379928 291.293315 396.153669 613.576830 955.033790 1362.684313 1777.152629 2186.409846 2600.527259 3032.399494 3490.457546 3968.373558 4454.137564 4950.048752 5465.221740 6002.536318 6555.368007 7116.390925 7681.839310 8248.672020 8822.653993 9410.097895 9998.774833 10566.575051 11092.779915 11562.386784 11977.409949 12337.023470 12631.263882 12857.171427 13019.336701 13106.891199 13122.125562 13122.125562 13122.125562 -8.105642 -8.105642 -8.105642 -8.186900 -9.097580 -11.444559 -14.096805 -17.106642 -20.451924 -24.128752 -28.157423 -32.572088 -37.414145 -42.729181 -48.565728 -54.974753 -62.009427 -69.724992 -78.178647 -87.429408 -97.537957 -108.566436 -120.578219 -133.637634 -147.809638 -163.159459 -179.752179 -197.652283 -216.923159 -237.626561 -259.822026 -283.566273 -308.912569 -335.910083 -364.603239 -395.031074 -427.226617 -461.216296 -497.019363 -534.647344 -574.103467 -615.382036 -658.467668 -703.334275 -749.943667 -798.243592 -848.164990 -899.618181 -952.487519 -1006.623540 -1061.830264 -1117.841727 -1174.273166 -1230.517470 -1285.547066 -1337.858022 -1386.005043 -1428.792018 -1464.148027 -1487.653247 -1490.779285 -1458.513786 -1365.145667 -1196.264315 -1004.120359 -855.404829 -728.396689 -567.085873 -390.816848 -278.697142 -235.250713 -201.839051 -117.330220 27.744251 158.024567 222.847296 250.379928 291.293315 396.153669 613.576830 955.033790 1362.684313 1777.152629 2186.409846 2600.527259 3032.399494 3490.457546 3968.373558 4454.137564 4950.048752 5465.221740 6002.536318 6555.368007 7116.390925 7681.839310 8248.672020 8822.653993 9410.097895 9998.774833 10566.575051 11092.779915 11562.386784 11977.409949 12337.023470 12631.263882 12857.171427 13019.336701 13106.891199 13122.125562 13122.125562 13122.125562 -8.072085 -8.072085 -8.072085 -8.151843 -9.056149 -11.387877 -14.047081 -17.076442 -20.435918 -24.119140 -28.150124 -32.565323 -37.407176 -42.721698 -48.557592 -54.965889 -61.999790 -69.714548 -78.167365 -87.417265 -97.524929 -108.552505 -120.563372 -133.621859 -147.792931 -163.141819 -179.733613 -197.632806 -216.902792 -237.605332 -259.799974 -283.543445 -308.889020 -335.885878 -364.578451 -395.005786 -427.200920 -461.190290 -496.993155 -534.621049 -574.077209 -615.355953 -658.441915 -703.309035 -749.919178 -798.220191 -848.143226 -899.599073 -952.473182 -1006.618735 -1061.846224 -1117.905415 -1174.447973 -1230.939670 -1286.378394 -1339.108002 -1387.560787 -1431.016278 -1467.930720 -1494.595455 -1503.640167 -1480.886210 -1391.931772 -1189.436500 -975.721119 -850.495042 -743.483143 -569.623431 -355.207077 -256.257922 -232.280849 -219.492135 -144.046997 35.399327 183.737731 239.068093 250.174978 274.201834 361.881900 575.042059 938.593970 1367.824552 1786.053802 2192.097012 2603.785879 3037.089729 3504.772342 3994.948349 4484.683321 4982.100411 5498.786512 6038.122042 6587.732951 7140.900168 7700.393891 8258.995931 8828.632744 9426.598387 10031.159736 10609.694214 11144.346135 11611.382209 12026.193536 12391.384118 12686.382476 12907.983636 13056.988926 13130.787309 13143.968331 13143.968331 13143.968331 -7.706890 -7.706890 -7.706890 -7.770093 -8.551086 -10.636627 -13.407708 -16.755866 -20.274851 -24.023971 -28.077686 -32.497925 -37.337612 -42.646947 -48.476282 -54.877303 -61.903471 -69.610152 -78.054604 -87.295886 -97.394712 -108.413264 -120.414959 -133.464173 -147.625919 -162.965487 -179.548028 -197.438104 -216.699186 -237.393115 -259.579522 -283.315225 -308.653588 -335.643882 -364.330630 -394.752966 -426.944013 -460.930286 -496.731126 -534.358146 -573.814679 -615.095161 -658.184405 -703.056642 -749.674251 -797.986072 -847.925315 -899.407342 -952.328276 -1006.567036 -1061.997307 -1118.524642 -1176.179842 -1235.263857 -1296.502182 -1354.686507 -1405.036225 -1455.153199 -1508.846556 -1569.908739 -1645.346796 -1738.369288 -1775.219434 -1167.252863 -521.562015 -740.684977 -1007.911498 -667.195207 158.414673 97.101099 -198.536401 -463.325277 -561.427563 159.512472 613.113236 431.790696 249.626674 76.430845 -64.685501 -11.791786 743.723748 1500.847266 1902.912914 2261.713864 2649.374921 3106.985373 3719.835426 4373.124987 4869.326953 5329.126171 5828.565341 6365.799497 6835.545669 7261.425318 7766.550469 8236.320693 8746.813749 9523.353400 10358.562185 11060.359381 11719.796660 12144.840165 12542.786414 12998.538526 13300.367902 13478.431244 13483.946976 13402.467159 13382.299612 13382.299612 13382.299612 -7.182538 -7.182538 -7.182538 -7.232094 -7.801875 -9.306818 -12.009878 -16.195281 -20.039915 -23.897609 -27.988543 -32.418709 -37.257551 -42.561619 -48.383746 -54.776592 -61.794006 -69.491519 -77.926464 -87.157947 -97.246721 -108.255010 -120.246274 -133.284938 -147.436075 -162.765037 -179.337049 -197.216750 -216.467698 -237.151823 -259.328856 -283.055713 -308.385863 -335.368681 -364.048793 -394.465433 -426.651820 -460.634561 -496.433086 -534.059102 -573.516047 -614.798500 -657.891484 -702.769594 -749.395881 -797.720537 -847.679682 -899.195305 -952.179262 -1006.548822 -1062.272800 -1119.496485 -1178.870542 -1242.445383 -1316.238104 -1379.113887 -1426.653632 -1483.283396 -1556.474540 -1658.035447 -1814.022070 -2080.031732 -2472.773115 -1573.445672 -132.048953 -583.004196 -1491.492377 -1094.953955 645.359075 576.755706 -156.187108 -818.563169 -1142.009766 381.549267 1284.649022 708.636751 253.194743 -166.679925 -750.971953 -1064.848634 606.432719 1910.487988 2080.656708 2355.168574 2741.957182 3151.351754 4111.731524 5208.488287 5119.328971 5428.017968 5646.989819 6371.354337 6658.014801 6642.736684 7621.105649 7959.400467 8180.703155 9589.771226 11208.886245 11401.086652 12857.995529 12839.954779 12896.107014 13630.663626 13652.521037 14052.658032 13907.281906 13752.505081 13711.700054 13711.700054 13711.700054 -7.107328 -7.107328 -7.107328 -7.154994 -7.698051 -9.095528 -6.577907 -6.577907 -6.577907 -6.609181 -6.964243 -7.738913 -5.743106 -5.743106 -5.743106 -5.756991 -5.905284 -6.157008 -4.973737 -4.973737 -4.973737 -4.979013 -5.031217 -5.117575 -4.287069 -4.287069 -4.287069 -4.288497 -4.302150 -4.327512 -3.682996 -3.682996 -3.682996 -3.682940 -3.682079 -3.684887 -3.155781 -3.155781 -3.155781 -3.155210 -3.149379 -3.144240 -2.697828 -2.697828 -2.697828 -2.697121 -2.690011 -2.682525 -2.301357 -2.301357 -2.301357 -2.300657 -2.293648 -2.285925 -1.959035 -1.959035 -1.959035 -1.958392 -1.951958 -1.944750 -1.664176 -1.664176 -1.664176 -1.663602 -1.657870 -1.651404 -1.410776 -1.410776 -1.410776 -1.410272 -1.405236 -1.399538 -1.193490 -1.193490 -1.193490 -1.193050 -1.188658 -1.183684 -1.007580 -1.007580 -1.007580 -1.007198 -1.003385 -0.999065 -0.848863 -0.848863 -0.848863 -0.848533 -0.845235 -0.841496 -0.713660 -0.713660 -0.713660 -0.713375 -0.710529 -0.707304 -0.598738 -0.598738 -0.598738 -0.598493 -0.596044 -0.593269 -0.501271 -0.501271 -0.501271 -0.501060 -0.498958 -0.496576 -0.418788 -0.418788 -0.418788 -0.418608 -0.416808 -0.414768 -0.349141 -0.349141 -0.349141 -0.348987 -0.347449 -0.345707 -0.290462 -0.290462 -0.290462 -0.290331 -0.289020 -0.287535 -0.241133 -0.241133 -0.241133 -0.241021 -0.239907 -0.238645 -0.199756 -0.199756 -0.199756 -0.199662 -0.198716 -0.197645 -0.165127 -0.165127 -0.165127 -0.165047 -0.164247 -0.163341 -0.136210 -0.136210 -0.136210 -0.136142 -0.135466 -0.134702 -0.112116 -0.112116 -0.112116 -0.112059 -0.111490 -0.110846 -0.092086 -0.092086 -0.092086 -0.092038 -0.091560 -0.091018 -0.075471 -0.075471 -0.075471 -0.075431 -0.075030 -0.074577 -0.061721 -0.061721 -0.061721 -0.061688 -0.061352 -0.060973 -0.050367 -0.050367 -0.050367 -0.050339 -0.050059 -0.049743 -0.041013 -0.041013 -0.041013 -0.040989 -0.040757 -0.040493 -0.033323 -0.033323 -0.033323 -0.033304 -0.033110 -0.032892 -0.027016 -0.027016 -0.027016 -0.027000 -0.026840 -0.026659 -0.021855 -0.021855 -0.021855 -0.021842 -0.021710 -0.021560 -0.017642 -0.017642 -0.017642 -0.017631 -0.017522 -0.017398 -0.014209 -0.014209 -0.014209 -0.014200 -0.014111 -0.014009 -0.011420 -0.011420 -0.011420 -0.011412 -0.011339 -0.011255 -0.009158 -0.009158 -0.009158 -0.009152 -0.009091 -0.009023 -0.007327 -0.007327 -0.007327 -0.007322 -0.007273 -0.007218 -0.005850 -0.005850 -0.005850 -0.005846 -0.005806 -0.005761 -0.004660 -0.004660 -0.004660 -0.004657 -0.004624 -0.004588 -0.003704 -0.003704 -0.003704 -0.003702 -0.003675 -0.003645 -0.002938 -0.002938 -0.002938 -0.002936 -0.002914 -0.002890 -0.002325 -0.002325 -0.002325 -0.002323 -0.002306 -0.002286 -0.001836 -0.001836 -0.001836 -0.001834 -0.001820 -0.001805 -0.001446 -0.001446 -0.001446 -0.001445 -0.001434 -0.001421 -0.001137 -0.001137 -0.001137 -0.001136 -0.001127 -0.001117 -0.000892 -0.000892 -0.000892 -0.000891 -0.000884 -0.000876 -0.000698 -0.000698 -0.000698 -0.000697 -0.000691 -0.000685 -0.000545 -0.000545 -0.000545 -0.000544 -0.000540 -0.000535 -0.000424 -0.000424 -0.000424 -0.000424 -0.000420 -0.000416 -0.000330 -0.000330 -0.000330 -0.000330 -0.000327 -0.000324 -0.000256 -0.000256 -0.000256 -0.000256 -0.000253 -0.000251 -0.000198 -0.000198 -0.000198 -0.000198 -0.000196 -0.000194 -0.000153 -0.000153 -0.000153 -0.000153 -0.000151 -0.000150 -0.000118 -0.000118 -0.000118 -0.000118 -0.000117 -0.000115 -0.000091 -0.000091 -0.000091 -0.000090 -0.000090 -0.000089 -0.000069 -0.000069 -0.000069 -0.000069 -0.000069 -0.000068 -0.000053 -0.000053 -0.000053 -0.000053 -0.000053 -0.000052 -0.000041 -0.000041 -0.000041 -0.000041 -0.000040 -0.000040 -0.000031 -0.000031 -0.000031 -0.000031 -0.000031 -0.000030 -0.000023 -0.000023 -0.000023 -0.000023 -0.000023 -0.000023 -0.000018 -0.000018 -0.000018 -0.000018 -0.000018 -0.000017 -0.000013 -0.000013 -0.000013 -0.000013 -0.000013 -0.000013 -0.000010 -0.000010 -0.000010 -0.000010 -0.000010 -0.000010 -0.000008 -0.000008 -0.000008 -0.000008 -0.000008 -0.000007 -0.000006 -0.000006 -0.000006 -0.000006 -0.000006 -0.000006 -0.000004 -0.000004 -0.000004 -0.000004 -0.000004 -0.000004 -0.000003 -0.000003 -0.000003 -0.000003 -0.000003 -0.000003 -0.000002 -0.000002 -0.000002 -0.000002 -0.000002 -0.000002 -0.000002 -0.000002 -0.000002 -0.000002 -0.000002 -0.000002 -0.000001 -0.000001 -0.000001 -0.000001 -0.000001 -0.000001 -0.000001 -0.000001 -0.000001 -0.000001 -0.000001 -0.000001 -0.000001 -0.000001 -0.000001 -0.000001 -0.000001 -0.000001 -0.000001 -0.000001 -0.000001 -0.000001 -0.000001 -0.000001 -0.000000 -0.000000 -0.000000 -0.000000 -0.000000 -0.000000 -0.000000 -0.000000 -0.000000 -0.000000 -0.000000 -0.000000 -0.000000 -0.000000 -0.000000 -0.000000 -0.000000 -0.000000 -0.000000 -0.000000 -0.000000 -0.000000 -0.000000 -0.000000 -0.000000 -0.000000 -0.000000 -0.000000 -0.000000 -0.000000 -0.000000 -0.000000 -0.000000 -0.000000 -0.000000 -0.000000 -0.000000 -0.000000 -0.000000 -0.000000 -0.000000 -0.000000 -0.000000 -0.000000 -0.000000 -0.000000 -0.000000 -0.000000 -0.000000 -0.000000 -0.000000 -0.000000 -0.000000 -0.000000 -0.000000 -0.000000 -0.000000 -0.000000 -0.000000 -0.000000 -0.000000 -0.000000 -0.000000 -0.000000 -0.000000 -0.000000 -0.000000 -0.000000 -0.000000 -0.000000 -0.000000 -0.000000 -0.000000 -0.000000 -0.000000 -0.000000 -0.000000 -0.000000 -0.000000 -0.000000 -0.000000 -0.000000 -0.000000 -0.000000 -0.000000 -0.000000 -0.000000 -0.000000 -0.000000 -0.000000 -0.000000 -0.000000 -0.000000 -0.000000 -0.000000 -0.000000 -0.000000 -0.000000 -0.000000 -0.000000 -0.000000 -0.000000 -0.000000 -0.000000 -0.000000 -0.000000 -0.000000 -0.000000 -0.000000 -0.000000 -0.000000 -0.000000 -0.000000 -0.000000 -0.000000 -0.000000 -0.000000 -0.000000 -0.000000 -0.000000 -0.000000 -0.000000 -0.000000 -0.000000 -0.000000 -0.000000 -0.000000 -0.000000 -0.000000 -0.000000 -0.000000 -0.000000 -0.000000 -0.000000 -0.000000 -0.000000 -0.000000 -0.000000 -0.000000 -0.000000 -0.000000 -0.000000 -0.000000 -0.000000 -0.000000 -0.000000 -0.000000 -0.000000 -0.000000 -0.000000 -0.000000 -0.000000 -0.000000 -0.000000 -0.000000 -0.000000 -0.000000 -0.000000 -0.000000 -0.000000 -0.000000 -0.000000 -0.000000 -0.000000 -0.000000 -0.000000 -0.000000 -0.000000 -0.000000 -0.000000 -0.000000 -0.000000 -0.000000 -0.000000 -0.000000 -0.000000 -0.000000 -0.000000 -0.000000 -0.000000 -0.000000 -0.000000 -0.000000 -0.000000 -0.000000 -0.000000 -0.000000 -0.000000 -0.000000 -0.000000 -0.000000 -0.000000 -0.000000 -0.000000 -0.000000 -0.000000 -0.000000 -0.000000 -0.000000 -0.000000 -0.000000 -0.000000 -0.000000 -0.000000 -0.000000 -0.000000 -0.000000 -0.000000 -0.000000 -0.000000 -0.000000 -0.000000 -0.000000 -0.000000 -0.000000 -0.000000 -0.000000 -0.000000 -0.000000 -0.000000 -0.000000 -0.000000 -0.000000 -0.000000 -0.000000 -0.000000 -0.000000 -0.000000 -0.000000 -0.000000 -0.000000 -0.000000 -0.000000 -0.000000 -0.000000 -0.000000 -0.000000 -0.000000 -0.000000 -0.000000 -0.000000 -0.000000 -0.000000 -0.000000 -0.000000 -0.000000 -0.000000 -0.000000 -0.000000 -0.000000 -0.000000 -0.000000 -0.000000 -0.000000 -0.000000 -0.000000 -0.000000 -0.000000 -0.000000 -0.000000 -0.000000 -0.000000 -0.000000 -0.000000 -0.000000 -0.000000 -0.000000 -0.000000 -0.000000 -0.000000 -0.000000 -0.000000 -0.000000 -0.000000 -0.000000 -0.000000 -0.000000 -0.000000 -0.000000 -0.000000 -0.000000 -0.000000 -0.000000 -0.000000 -0.000000 -0.000000 -0.000000 -0.000000 -0.000000 -0.000000 -0.000000 -0.000000 -0.000000 -0.000000 -0.000000 -0.000000 -0.000000 -0.000000 -0.000000 -0.000000 -0.000000 -0.000000 -0.000000 -0.000000 -0.000000 -0.000000 -0.000000 -0.000000 -0.000000 -0.000000 -0.000000 -0.000000 -0.000000 -0.000000 -0.000000 -0.000000 -0.000000 -0.000000 -0.000000 -0.000000 -0.000000 -0.000000 -0.000000 -0.000000 -0.000000 -0.000000 -0.000000 -0.000000 -0.000000 -0.000000 -0.000000 -0.000000 -0.000000 -0.000000 -0.000000 -0.000000 -0.000000 -0.000000 -0.000000 -0.000000 -0.000000 -0.000000 -0.000000 -0.000000 -0.000000 -0.000000 -0.000000 -0.000000 -0.000000 -0.000000 -0.000000 -0.000000 -0.000000 -0.000000 -0.000000 -0.000000 -0.000000 -0.000000 -0.000000 -0.000000 -0.000000 -0.000000 -0.000000 -0.000000 -0.000000 -0.000000 -0.000000 -0.000000 -0.000000 -0.000000 -0.000000 -0.000000 -0.000000 -0.000000 -0.000000 -0.000000 -0.000000 -0.000000 -0.000000 -0.000000 -0.000000 -0.000000 -0.000000 -0.000000 -0.000000 -0.000000 -0.000000 -0.000000 -0.000000 -0.000000 -0.000000 -0.000000 -0.000000 -0.000000 -0.000000 -0.000000 -0.000000 -0.000000 -0.000000 -0.000000 -0.000000 -0.000000 -0.000000 -0.000000 -0.000000 -0.000000 -0.000000 -0.000000 -0.000000 -0.000000 -0.000000 -0.000000 -0.000000 -0.000000 -0.000000 -0.000000 -0.000000 -0.000000 -0.000000 -0.000000 -0.000000 -0.000000 -0.000000 -0.000000 -0.000000 -0.000000 -0.000000 -0.000000 -0.000000 -0.000000 -0.000000 -0.000000 -0.000000 -0.000000 -0.000000 -0.000000 -0.000000 -0.000000 -0.000000 -0.000000 -0.000000 -0.000000 -0.000000 -0.000000 -0.000000 -0.000000 -0.000000 -0.000000 -0.000000 -0.000000 -0.000000 -0.000000 -0.000000 -0.000000 -0.000000 -0.000000 -0.000000 -0.000000 -0.000000 -0.000000 -0.000000 -0.000000 0.000000 0.000000 0.000000 0.000000 -0.000000 0.000000 0.000000 0.000000 0.000000 0.000000 0.000000 0.000000 0.000000 0.000000 0.000000 0.000000 0.000000 0.000000 0.000000 0.000000 0.000000 0.000000 0.000000 0.000000 0.000000 0.000000 0.000000 0.000000 0.000000 0.000000 0.000000 0.000000 0.000000 0.000000 0.000000 0.000000 0.000000 0.000000 0.000000 0.000000 0.000000 0.000000 0.000000 0.000000 0.000000 0.000000 0.000000 0.000000 0.000000 0.000000 0.000000 0.000000 0.000000 0.000000 0.000000 0.000000 0.000000 0.000000 0.000000 0.000000 0.000000 0.000000 0.000000 0.000000 0.000000 0.000000 0.000001 0.000001 0.000001 0.000001 0.000001 0.000001 0.000001 0.000001 0.000001 0.000001 0.000001 0.000001 0.000002 0.000002 0.000002 0.000002 0.000001 0.000001 0.000002 0.000002 0.000002 0.000002 0.000002 0.000002 0.000003 0.000003 0.000003 0.000003 0.000003 0.000003 0.000005 0.000005 0.000005 0.000005 0.000005 0.000005 0.000008 0.000008 0.000008 0.000008 0.000007 0.000007 0.000011 0.000011 0.000011 0.000011 0.000011 0.000011 0.000017 0.000017 0.000017 0.000017 0.000016 0.000016 0.000025 0.000025 0.000025 0.000025 0.000024 0.000024 0.000036 0.000036 0.000036 0.000036 0.000035 0.000034 0.000052 0.000052 0.000052 0.000052 0.000051 0.000050 0.000076 0.000076 0.000076 0.000076 0.000075 0.000073 0.000110 0.000110 0.000110 0.000110 0.000108 0.000106 0.000159 0.000159 0.000159 0.000159 0.000156 0.000153 0.000228 0.000228 0.000228 0.000228 0.000224 0.000219 0.000326 0.000326 0.000326 0.000326 0.000320 0.000314 0.000465 0.000465 0.000465 0.000464 0.000456 0.000448 0.000659 0.000659 0.000659 0.000658 0.000648 0.000636 0.000931 0.000931 0.000931 0.000930 0.000915 0.000899 0.001309 0.001309 0.001309 0.001307 0.001287 0.001265 0.001833 0.001833 0.001833 0.001831 0.001803 0.001773 0.002556 0.002556 0.002556 0.002552 0.002515 0.002474 0.003548 0.003548 0.003548 0.003543 0.003493 0.003437 0.004901 0.004901 0.004901 0.004895 0.004828 0.004754 0.006741 0.006741 0.006741 0.006733 0.006644 0.006546 0.009229 0.009229 0.009229 0.009218 0.009102 0.008973 0.012577 0.012577 0.012577 0.012562 0.012413 0.012248 0.017057 0.017057 0.017057 0.017038 0.016852 0.016650 0.023021 0.023021 0.023021 0.022999 0.022782 0.022556 0.030914 0.030914 0.030914 0.030893 0.030678 0.030485 0.041290 0.041290 0.041290 0.041281 0.041180 0.041196 0.054815 0.054815 0.054815 0.054851 0.055185 0.055900 0.072238 0.072238 0.072238 0.072406 0.074035 0.076784 0.094259 0.094259 0.094259 0.094773 0.099914 0.108353 0.121197 0.121197 0.121197 0.122490 0.136396 0.161086 0.152379 0.152379 0.152379 0.155036 0.185794 0.264459 0.185779 0.185779 0.185779 0.190015 0.241521 0.388434 0.621859 0.924461 1.245235 1.614584 2.052257 2.575549 3.201906 3.949801 4.839019 5.890629 7.126771 8.570263 10.244031 12.170347 14.369866 16.860451 19.655773 22.763712 26.184565 29.909108 33.916552 38.172484 42.626872 47.212237 51.842138 56.410068 60.788933 64.831215 68.369952 71.220621 73.183974 74.049836 73.601812 71.622785 67.901037 62.236741 54.448545 44.379928 31.904976 16.933244 -0.586713 -20.665637 -43.274552 -68.350033 -95.807052 -125.566238 -157.610059 -192.099170 -229.617068 -271.693711 -321.943878 -388.575645 -489.993042 -667.826620 -1016.547489 -1828.671192 -2963.531081 71.972598 3102.686906 1702.173056 695.380879 0.225252 -941.625559 -3039.932671 -1711.705445 3936.575386 3766.080369 2678.565090 2408.066728 2349.098131 2361.681111 2376.319011 2334.275882 2148.830141 1679.732354 752.147420 -1224.086449 2461.168370 8237.201933 8579.007023 8082.663062 7829.603976 9317.699645 10497.112747 10955.149289 10045.973810 10981.711170 12640.179829 13718.339722 13235.557848 14531.808193 16054.133034 14390.889850 12794.439913 13062.599575 13714.325619 12206.661490 13877.856625 16291.671698 16698.307239 16632.046731 17282.600491 17501.378855 17501.378855 17501.378855 0.219557 0.219557 0.219557 0.224899 0.290588 0.466115 0.684411 0.949372 1.260518 1.627843 2.066157 2.591252 3.220019 3.970706 4.862984 5.917846 7.157357 8.604243 10.281314 12.210699 14.412881 16.905514 19.702033 22.810054 26.229586 29.951102 33.953508 38.202095 42.646559 47.219195 51.833396 56.382577 60.739666 64.757286 68.268751 71.089956 73.022211 73.856036 73.375845 71.365430 67.614035 61.922818 54.111396 44.024169 31.536091 16.557577 -0.961809 -21.031257 -43.618755 -68.654198 -96.037267 -125.653346 -157.403940 -191.264786 -227.399710 -266.391705 -309.727914 -360.836803 -427.277626 -524.840624 -682.513210 -901.722628 -1065.958392 87.319940 1193.703793 923.866258 593.303755 275.036391 -89.271934 -392.969402 271.496979 1980.438213 2363.902341 2323.999472 2294.250274 2335.214308 2412.010078 2502.137690 2586.114200 2637.763417 2634.557428 2650.603842 3260.658807 5026.194913 6791.007007 7439.068748 7667.049185 8113.605071 8990.546597 9781.552238 10442.604912 10743.554468 11443.447561 12201.567018 12629.323473 12827.426420 13395.999227 14006.522116 13745.649407 13178.486257 13132.436517 13522.171460 13369.615851 14460.341717 15993.837022 15742.699287 16304.611170 17461.483516 17684.557656 17684.557656 17684.557656 0.238694 0.238694 0.238694 0.244783 0.315452 0.499553 0.713967 0.970149 1.276147 1.642445 2.081879 2.609176 3.240757 3.994660 4.890445 5.949026 7.192383 8.643139 10.323972 12.256848 14.462048 16.956991 19.754843 22.862915 26.280890 29.998895 33.995489 38.235624 42.668690 47.226725 51.822937 56.350652 60.682825 64.672245 68.152543 70.940090 72.836837 73.634094 73.117202 71.070983 67.285778 61.563866 53.725958 43.617490 31.114380 16.127959 -1.391194 -21.450803 -44.016073 -69.010803 -96.320639 -125.798429 -157.270579 -190.540815 -225.382076 -261.495778 -298.395014 -335.122512 -369.608057 -397.160542 -406.260366 -368.371882 -210.816691 109.369945 407.529567 520.888899 522.687929 505.727019 528.628156 676.898891 1043.567154 1521.626428 1864.128742 2060.466360 2197.484578 2322.950859 2458.488140 2617.928756 2815.552702 3070.500383 3414.972564 3909.931760 4630.062367 5548.037191 6421.552851 7093.788398 7664.488281 8265.212988 8929.721429 9611.705077 10266.739315 10871.639626 11436.419806 11942.858102 12371.829412 12758.352673 13155.880273 13508.753375 13735.539725 13902.706845 14128.522259 14437.003133 14855.037037 15497.077685 16193.597048 16664.193732 17243.980458 17719.363409 17811.416257 17811.416257 17811.416257 0.241376 0.241376 0.241376 0.247678 0.318759 0.503666 0.717913 0.973304 1.278777 1.645007 2.084678 2.612384 3.244475 3.998956 4.895370 5.954618 7.198663 8.650111 10.331617 12.265115 14.470853 16.966208 19.764294 22.872371 26.290062 30.007433 34.002980 38.241596 42.672615 47.228030 51.821015 56.344882 60.672590 64.656958 68.131675 70.913196 72.803588 73.594301 73.070844 71.018220 67.226968 61.499566 53.656921 43.544653 31.038847 16.050995 -1.468158 -21.526103 -44.087618 -69.075558 -96.373404 -125.828945 -157.256873 -190.434021 -225.072156 -260.734750 -296.626692 -331.110898 -360.658874 -377.691698 -366.576814 -298.929400 -137.886577 111.464789 344.252495 470.739383 514.107804 539.484474 610.752028 791.763272 1111.986580 1494.485475 1809.387360 2025.899154 2183.176312 2321.124780 2465.752790 2635.955072 2851.007738 3136.080092 3526.821148 4067.430427 4779.829741 5600.109123 6387.081399 7061.531847 7668.144668 8282.577496 8933.261030 9601.612301 10256.281380 10868.782253 11425.386078 11918.558835 12353.624875 12755.992632 13143.954954 13490.121619 13763.549595 13999.001745 14264.316582 14602.596617 15054.006926 15646.670210 16275.790215 16834.728058 17368.416427 17754.189355 17830.126149 17830.126149 17830.126149 0.241376 0.241376 0.241376 0.247678 0.318759 0.503666 0.717913 0.973304 1.278777 1.645007 2.084678 2.612384 3.244475 3.998956 4.895370 5.954618 7.198663 8.650111 10.331617 12.265115 14.470853 16.966208 19.764294 22.872371 26.290062 30.007433 34.002980 38.241596 42.672615 47.228030 51.821015 56.344882 60.672590 64.656958 68.131675 70.913196 72.803588 73.594301 73.070844 71.018220 67.226968 61.499566 53.656921 43.544653 31.038847 16.050995 -1.468158 -21.526103 -44.087618 -69.075558 -96.373404 -125.828945 -157.256873 -190.434021 -225.072156 -260.734750 -296.626692 -331.110898 -360.658874 -377.691698 -366.576814 -298.929400 -137.886577 111.464789 344.252495 470.739383 514.107804 539.484474 610.752028 791.763272 1111.986580 1494.485475 1809.387360 2025.899154 2183.176312 2321.124780 2465.752790 2635.955072 2851.007738 3136.080092 3526.821148 4067.430427 4779.829741 5600.109123 6387.081399 7061.531847 7668.144668 8282.577496 8933.261030 9601.612301 10256.281380 10868.782253 11425.386078 11918.558835 12353.624875 12755.992632 13143.954954 13490.121619 13763.549595 13999.001745 14264.316582 14602.596617 15054.006926 15646.670210 16275.790215 16834.728058 17368.416427 17754.189355 17830.126149 17830.126149 17830.126149 0.241376 0.241376 0.241376 0.247678 0.318759 0.503666 0.717913 0.973304 1.278777 1.645007 2.084678 2.612384 3.244475 3.998956 4.895370 5.954618 7.198663 8.650111 10.331617 12.265115 14.470853 16.966208 19.764294 22.872371 26.290062 30.007433 34.002980 38.241596 42.672615 47.228030 51.821015 56.344882 60.672590 64.656958 68.131675 70.913196 72.803588 73.594301 73.070844 71.018220 67.226968 61.499566 53.656921 43.544653 31.038847 16.050995 -1.468158 -21.526103 -44.087618 -69.075558 -96.373404 -125.828945 -157.256873 -190.434021 -225.072156 -260.734750 -296.626692 -331.110898 -360.658874 -377.691698 -366.576814 -298.929400 -137.886577 111.464789 344.252495 470.739383 514.107804 539.484474 610.752028 791.763272 1111.986580 1494.485475 1809.387360 2025.899154 2183.176312 2321.124780 2465.752790 2635.955072 2851.007738 3136.080092 3526.821148 4067.430427 4779.829741 5600.109123 6387.081399 7061.531847 7668.144668 8282.577496 8933.261030 9601.612301 10256.281380 10868.782253 11425.386078 11918.558835 12353.624875 12755.992632 13143.954954 13490.121619 13763.549595 13999.001745 14264.316582 14602.596617 15054.006926 15646.670210 16275.790215 16834.728058 17368.416427 17754.189355 17830.126149 17830.126149 17830.126149 -1391.343583 -1438.693947 -1498.833194 -1578.161881 -1691.498304 -1870.215588 -2200.038818 -2547.091475 -1324.704750 -102.958301 -786.069131 -1668.476013 -839.798815 802.931458 441.143315 -273.350853 -990.302386 -994.402639 760.186851 1241.508866 612.136496 166.812179 -279.758574 -983.019419 -968.269305 1059.619222 2038.590359 2135.559435 2449.627517 2915.437770 3267.908216 4550.320103 5394.367667 5097.089796 5292.029657 5509.632612 6330.635124 6363.114444 6544.371757 7701.259244 7994.840756 8269.877553 10233.922550 11498.237386 11567.960979 13326.100894 12707.171532 13213.588073 13662.729872 13639.169116 14077.940152 13857.799819 13775.209136 13752.393591 13752.393591 13752.393591 -536.249606 21.053011 2780.049000 15079.000494 15864.563153 13158.002165 15610.037394 15736.949806 14505.351759 15459.635160 15670.689938 18204.811538 15156.885325 13653.564425 14500.887392 15355.482400 14743.051852 14257.965047 15526.305142 14876.630731 16091.629136 15858.607045 13315.392496 14676.680770 13773.159705 14395.312805 15447.210414 13959.018527 13922.472498 16835.982725 15364.764440 16145.766869 12882.934999 14580.164828 14384.899358 15182.639180 15788.482301 15742.885963 15495.660696 16065.419107 14520.667014 15631.891974 14105.267003 14876.609381 16519.637022 16200.962104 12978.221076 15264.802171 12796.049694 15585.725715 16262.961329 14291.945372 14032.537798 14017.977919 14017.977919 14017.977919 -27.178196 3173.131064 13719.482511 5722.092538 15088.856020 16032.090382 15023.730816 15770.304589 16362.372930 15536.338720 14580.483232 15502.986471 15009.266290 15860.226653 14191.885601 17100.482447 15010.566817 15039.117997 14872.904282 14931.770436 16823.360857 13339.446101 13181.966520 14322.632427 15418.765661 13082.928584 14916.073047 14292.402009 13698.740642 13914.735778 12206.007177 12830.667179 14031.883071 14407.386449 17298.348878 13122.569855 16294.248003 14320.740955 14332.486821 17424.366917 15835.380979 12058.422671 14279.248025 14923.223957 16062.195791 12711.970180 14215.840529 16317.081623 14305.024702 16294.051810 15774.542115 15565.457895 14597.900593 14441.128458 14441.128458 14441.128458 660.722865 2643.772343 14610.691865 13269.331370 13505.204577 13967.391435 15127.614136 16057.269285 13622.502924 15434.755125 14935.847582 15086.520050 16013.589025 14616.449310 16086.152866 18339.975729 15327.588933 14907.139495 14810.021180 14414.762545 16120.434791 14457.873259 11537.914501 15388.741436 16336.522027 14195.887384 17314.442405 14960.642232 15139.433758 12837.608561 14479.072899 15194.752514 15091.105146 15194.724472 15000.725191 13580.368357 16043.741790 15057.683171 14742.815882 12138.528644 14879.948848 14787.710741 14400.095595 12936.770560 12783.371033 13270.60752