<VTKFile type="PolyData">
<PolyData>
<Piece NumberOfPoints="8632" NumberOfVerts="8632" NumberOfLines="0" NumberOfStrips="0" NumberOfPolys="0">
<PointData>
<DataArray type="Float64" Name="Pressure" format="ascii">
 -7.231551 -7.231551 -7.231551 -7.306907 -8.151611 -10.329680 -12.793683 -15.594289 -18.713262 -22.149392 -25.924053 -30.071660 -34.633580 -39.655321 -45.185405 -51.274908 -57.977267 -65.348167 -73.445444 -82.328966 -92.060492 -102.703484 -114.322888 -126.984867 -140.756488 -155.705365 -171.899251 -189.405580 -208.290958 -228.620614 -250.457786 -273.863082 -298.893790 -325.603159 -354.039670 -384.246300 -416.259801 -450.110028 -485.819331 -523.402036 -562.864032 -604.202473 -647.405543 -692.452255 -739.312119 -787.944499 -838.297312 -890.304578 -943.881946 -998.918677 -1055.262850 -1112.692633 -1170.857168 -1229.154842 -1286.505745 -1341.267086 -1391.768417 -1436.483892 -1472.792888 -1495.312660 -1493.922023 -1451.034717 -1339.157606 -1153.402169 -960.754371 -816.892832 -686.567952 -520.595403 -354.790455 -263.759155 -236.537483 -208.143689 -120.903418 17.660984 121.790754 155.996214 158.843259 182.016664 276.078910 485.712371 809.930221 1187.484370 1574.289977 1969.759259 2385.219145 2825.372349 3280.001532 3733.047281 4187.037701 4654.665308 5143.393850 5658.576704 6204.936468 6783.158551 7383.064839 7991.172499 8603.617932 9213.670677 9798.980531 10342.562960 10846.332222 11317.954580 11754.193883 12136.548371 12439.918256 12659.481672 12828.381697 12938.504480 12960.082652 12960.082652 12960.082652 -7.231551 -7.231551 -7.231551 -7.306907 -8.151611 -10.329680 -12.793683 -15.594289 -18.713262 -22.149392 -25.924053 -30.071660 -34.633580 -39.655321 -45.185405 -51.274908 -57.977267 -65.348167 -73.445444 -82.328966 -92.060492 -102.703484 -114.322888 -126.984867 -140.756488 -155.705365 -171.899251 -189.405580 -208.290958 -228.620614 -250.457786 -273.863082 -298.893790 -325.603159 -354.039670 -384.246300 -416.259801 -450.110028 -485.819331 -523.402036 -562.864032 -604.202473 -647.405543 -692.452255 -739.312119 -787.944499 -838.297312 -890.304578 -943.881946 -998.918677 -1055.262850 -1112.692633 -1170.857168 -1229.154842 -1286.505745 -1341.267086 -1391.768417 -1436.483892 -1472.792888 -1495.312660 -1493.922023 -1451.034717 -1339.157606 -1153.402169 -960.754371 -816.892832 -686.567952 -520.595403 -354.790455 -263.759155 -236.537483 -208.143689 -120.903418 17.660984 121.790754 155.996214 158.843259 182.016664 276.078910 485.712371 809.930221 1187.484370 1574.289977 1969.759259 2385.219145 2825.372349 3280.001532 3733.047281 4187.037701 4654.665308 5143.393850 5658.576704 6204.936468 6783.158551 7383.064839 7991.172499 8603.617932 9213.670677 9798.980531 10342.562960 10846.332222 11317.954580 11754.193883 12136.548371 12439.918256 12659.481672 12828.381697 12938.504480 12960.082652 12960.082652 12960.082652 -7.231551 -7.231551 -7.231551 -7.306907 -8.151611 -10.329680 -12.793683 -15.594289 -18.713262 -22.149392 -25.924053 -30.071660 -34.633580 -39.655321 -45.185405 -51.274908 -57.977267 -65.348167 -73.445444 -82.328966 -92.060492 -102.703484 -114.322888 -126.984867 -140.756488 -155.705365 -171.899251 -189.405580 -208.290958 -228.620614 -250.457786 -273.863082 -298.893790 -325.603159 -354.039670 -384.246300 -416.259801 -450.110028 -485.819331 -523.402036 -562.864032 -604.202473 -647.405543 -692.452255 -739.312119 -787.944499 -838.297312 -890.304578 -943.881946 -998.918677 -1055.262850 -1112.692633 -1170.857168 -1229.154842 -1286.505745 -1341.267086 -1391.768417 -1436.483892 -1472.792888 -1495.312660 -1493.922023 -1451.034717 -1339.157606 -1153.402169 -960.754371 -816.892832 -686.567952 -520.595403 -354.790455 -263.759155 -236.537483 -208.143689 -120.903418 17.660984 121.790754 155.996214 158.843259 182.016664 276.078910 485.712371 809.930221 1187.484370 1574.289977 1969.759259 2385.219145 2825.372349 3280.001532 3733.047281 4187.037701 4654.665308 5143.393850 5658.576704 6204.936468 6783.158551 7383.064839 7991.172499 8603.617932 9213.670677 9798.980531 10342.562960 10846.332222 11317.954580 11754.193883 12136.548371 12439.918256 12659.481672 12828.381697 12938.504480 12960.082652 12960.082652 12960.082652 -7.200901 -7.200901 -7.200901 -7.274855 -8.113579 -10.277389 -12.747687 -15.566275 -18.698325 -22.140325 -25.917081 -30.065137 -34.626820 -39.648035 -45.177458 -51.266229 -57.967807 -65.337890 -73.434318 -82.316964 -92.047588 -102.689655 -114.308116 -126.969138 -140.739793 -155.687701 -171.880620 -189.385991 -208.270430 -228.599172 -250.435466 -273.839929 -298.869857 -325.578511 -354.014384 -384.220461 -416.233504 -450.083377 -485.792438 -523.375018 -562.837014 -604.175580 -647.378912 -692.426034 -739.286493 -787.919736 -838.273883 -890.283432 -943.865197 -998.911277 -1055.276700 -1112.756506 -1171.038831 -1229.600115 -1287.389613 -1342.607516 -1393.457419 -1438.923981 -1476.959538 -1502.949198 -1507.915003 -1474.097204 -1363.199734 -1143.095613 -934.201685 -812.797458 -702.533418 -518.976025 -321.354814 -242.821947 -236.468417 -227.564700 -144.876361 36.007193 148.814670 171.109326 157.255871 163.935643 243.035855 454.731929 804.423474 1200.332608 1589.478157 1983.617528 2400.585581 2847.542388 3308.504883 3752.758685 4191.637609 4647.639316 5129.538476 5643.813036 6191.857222 6775.484832 7380.715087 7990.158939 8606.668360 9227.148226 9817.580552 10358.843996 10859.977364 11333.775092 11777.284620 12171.120486 12478.795062 12684.684502 12839.559433 12945.344200 12966.816529 12966.816529 12966.816529 -6.867496 -6.867496 -6.867496 -6.926073 -7.650079 -9.584046 -12.156082 -15.268905 -18.548019 -22.050536 -25.847882 -30.000147 -34.559346 -39.575246 -45.098046 -51.179484 -57.873262 -65.235177 -73.323121 -82.196999 -91.918600 -102.551425 -114.160459 -126.811912 -140.572907 -155.511119 -171.694371 -189.190173 -208.065218 -228.384825 -250.212334 -273.608457 -298.630592 -325.332104 -353.761588 -383.962131 -415.970594 -449.816928 -485.523566 -523.104901 -562.566881 -603.906707 -647.112643 -692.163856 -739.030234 -787.672042 -838.039351 -890.071341 -943.696133 -998.833423 -1055.406125 -1113.376308 -1172.837602 -1234.158833 -1298.135635 -1359.276287 -1412.411525 -1465.395086 -1522.020809 -1585.805298 -1663.010337 -1750.109634 -1753.372231 -1066.293261 -498.607703 -744.987037 -994.348121 -537.194930 203.335280 60.129449 -236.026626 -519.559522 -516.625313 301.324951 582.027405 344.856766 139.856290 -47.156730 -191.307853 -39.978002 777.173197 1408.799821 1770.053333 2134.439687 2563.856538 3114.279479 3673.543697 3974.198194 4189.044796 4509.380325 4932.755955 5468.075963 6053.627036 6709.808880 7379.046894 7981.339153 8638.780702 9407.744094 10043.018489 10526.532555 10997.222945 11509.896079 12044.609278 12606.094982 12993.908147 12995.480426 12962.148467 13024.901062 13043.246895 13043.246895 13043.246895 -6.389358 -6.389358 -6.389358 -6.435245 -6.962908 -8.356897 -10.862722 -14.749356 -18.329259 -21.931688 -25.762950 -29.923875 -34.481743 -39.492183 -45.007682 -51.080874 -57.765819 -65.118462 -73.196763 -82.060672 -91.772015 -102.394326 -113.992637 -126.633206 -140.383212 -155.310393 -171.482644 -188.967556 -207.831909 -228.141118 -249.958625 -273.345252 -298.358511 -325.051886 -353.474090 -383.668328 -415.671570 -449.513868 -485.217742 -522.797658 -562.259621 -603.600893 -646.809826 -691.865786 -738.739137 -787.391309 -837.775195 -889.836809 -943.520952 -998.788384 -1055.664002 -1114.366445 -1175.650941 -1241.746732 -1319.065168 -1385.366179 -1435.831862 -1496.227456 -1574.426710 -1682.700277 -1848.236074 -2135.127571 -2444.568624 -1229.336511 29.482167 -648.383797 -1535.866357 -790.764926 827.824915 494.709953 -232.300664 -943.718829 -1035.881733 677.472868 1219.595565 574.561187 121.712719 -307.769111 -919.579921 -906.076122 928.413130 1866.583686 2003.208190 2314.610384 2714.883400 3444.512603 4596.786681 4177.266880 4000.807186 4249.469905 4591.767143 5472.666840 6015.947397 6867.283712 7667.525410 8083.762768 8781.375479 10026.163421 10501.789828 10694.248495 11105.874054 11839.000309 12217.540652 13070.123098 14097.932819 13172.879268 12686.437706 13109.909365 13160.995434 13160.995434 13160.995434 -6.320891 -6.320891 -6.320891 -6.365017 -6.867808 -8.162059 -5.839801 -5.839801 -5.839801 -5.868736 -6.197249 -6.914006 -5.082810 -5.082810 -5.082810 -5.095655 -5.232784 -5.465556 -4.386982 -4.386982 -4.386982 -4.391859 -4.440105 -4.519927 -3.767857 -3.767857 -3.767857 -3.769178 -3.781807 -3.805260 -3.225032 -3.225032 -3.225032 -3.224983 -3.224228 -3.226869 -2.752950 -2.752950 -2.752950 -2.752429 -2.747109 -2.742436 -2.344391 -2.344391 -2.344391 -2.343747 -2.337267 -2.330451 -1.992016 -1.992016 -1.992016 -1.991380 -1.985009 -1.977992 -1.688939 -1.688939 -1.688939 -1.688356 -1.682527 -1.675999 -1.428908 -1.428908 -1.428908 -1.428391 -1.423215 -1.417379 -1.206333 -1.206333 -1.206333 -1.205879 -1.201350 -1.196227 -1.016254 -1.016254 -1.016254 -1.015860 -1.011925 -1.007470 -0.854295 -0.854295 -0.854295 -0.853954 -0.850553 -0.846699 -0.716608 -0.716608 -0.716608 -0.716314 -0.713384 -0.710063 -0.599819 -0.599819 -0.599819 -0.599567 -0.597050 -0.594197 -0.500982 -0.500982 -0.500982 -0.500766 -0.498609 -0.496165 -0.417526 -0.417526 -0.417526 -0.417341 -0.415498 -0.413409 -0.347217 -0.347217 -0.347217 -0.347060 -0.345488 -0.343708 -0.288120 -0.288120 -0.288120 -0.287987 -0.286650 -0.285136 -0.238560 -0.238560 -0.238560 -0.238447 -0.237313 -0.236028 -0.197093 -0.197093 -0.197093 -0.196996 -0.196037 -0.194950 -0.162476 -0.162476 -0.162476 -0.162395 -0.161585 -0.160667 -0.133645 -0.133645 -0.133645 -0.133576 -0.132894 -0.132121 -0.109687 -0.109687 -0.109687 -0.109629 -0.109056 -0.108407 -0.089825 -0.089825 -0.089825 -0.089777 -0.089296 -0.088752 -0.073396 -0.073396 -0.073396 -0.073356 -0.072955 -0.072500 -0.059839 -0.059839 -0.059839 -0.059806 -0.059471 -0.059092 -0.048678 -0.048678 -0.048678 -0.048650 -0.048371 -0.048056 -0.039510 -0.039510 -0.039510 -0.039487 -0.039255 -0.038994 -0.031997 -0.031997 -0.031997 -0.031978 -0.031786 -0.031569 -0.025854 -0.025854 -0.025854 -0.025838 -0.025680 -0.025501 -0.020844 -0.020844 -0.020844 -0.020831 -0.020701 -0.020553 -0.016767 -0.016767 -0.016767 -0.016756 -0.016649 -0.016528 -0.013457 -0.013457 -0.013457 -0.013448 -0.013360 -0.013261 -0.010776 -0.010776 -0.010776 -0.010769 -0.010697 -0.010616 -0.008609 -0.008609 -0.008609 -0.008604 -0.008545 -0.008479 -0.006863 -0.006863 -0.006863 -0.006858 -0.006811 -0.006757 -0.005458 -0.005458 -0.005458 -0.005455 -0.005416 -0.005372 -0.004331 -0.004331 -0.004331 -0.004328 -0.004297 -0.004262 -0.003429 -0.003429 -0.003429 -0.003427 -0.003401 -0.003373 -0.002709 -0.002709 -0.002709 -0.002707 -0.002686 -0.002663 -0.002135 -0.002135 -0.002135 -0.002133 -0.002117 -0.002098 -0.001679 -0.001679 -0.001679 -0.001677 -0.001664 -0.001649 -0.001317 -0.001317 -0.001317 -0.001316 -0.001305 -0.001294 -0.001031 -0.001031 -0.001031 -0.001030 -0.001022 -0.001012 -0.000805 -0.000805 -0.000805 -0.000804 -0.000798 -0.000790 -0.000627 -0.000627 -0.000627 -0.000627 -0.000621 -0.000615 -0.000487 -0.000487 -0.000487 -0.000487 -0.000483 -0.000478 -0.000378 -0.000378 -0.000378 -0.000378 -0.000374 -0.000371 -0.000293 -0.000293 -0.000293 -0.000292 -0.000290 -0.000287 -0.000226 -0.000226 -0.000226 -0.000226 -0.000224 -0.000221 -0.000174 -0.000174 -0.000174 -0.000174 -0.000172 -0.000170 -0.000134 -0.000134 -0.000134 -0.000134 -0.000132 -0.000131 -0.000102 -0.000102 -0.000102 -0.000102 -0.000101 -0.000100 -0.000078 -0.000078 -0.000078 -0.000078 -0.000078 -0.000077 -0.000060 -0.000060 -0.000060 -0.000060 -0.000059 -0.000058 -0.000046 -0.000046 -0.000046 -0.000045 -0.000045 -0.000045 -0.000035 -0.000035 -0.000035 -0.000035 -0.000034 -0.000034 -0.000026 -0.000026 -0.000026 -0.000026 -0.000026 -0.000026 -0.000020 -0.000020 -0.000020 -0.000020 -0.000020 -0.000019 -0.000015 -0.000015 -0.000015 -0.000015 -0.000015 -0.000015 -0.000011 -0.000011 -0.000011 -0.000011 -0.000011 -0.000011 -0.000008 -0.000008 -0.000008 -0.000008 -0.000008 -0.000008 -0.000006 -0.000006 -0.000006 -0.000006 -0.000006 -0.000006 -0.000005 -0.000005 -0.000005 -0.000005 -0.000005 -0.000005 -0.000004 -0.000004 -0.000004 -0.000004 -0.000003 -0.000003 -0.000003 -0.000003 -0.000003 -0.000003 -0.000003 -0.000003 -0.000002 -0.000002 -0.000002 -0.000002 -0.000002 -0.000002 -0.000001 -0.000001 -0.000001 -0.000001 -0.000001 -0.000001 -0.000001 -0.000001 -0.000001 -0.000001 -0.000001 -0.000001 -0.000001 -0.000001 -0.000001 -0.000001 -0.000001 -0.000001 -0.000001 -0.000001 -0.000001 -0.000001 -0.000001 -0.000001 -0.000000 -0.000000 -0.000000 -0.000000 -0.000000 -0.000000 -0.000000 -0.000000 -0.000000 -0.000000 -0.000000 -0.000000 -0.000000 -0.000000 -0.000000 -0.000000 -0.000000 -0.000000 -0.000000 -0.000000 -0.000000 -0.000000 -0.000000 -0.000000 -0.000000 -0.000000 -0.000000 -0.000000 -0.000000 -0.000000 -0.000000 -0.000000 -0.000000 -0.000000 -0.000000 -0.000000 -0.000000 -0.000000 -0.000000 -0.000000 -0.000000 -0.000000 -0.000000 -0.000000 -0.000000 -0.000000 -0.000000 -0.000000 -0.000000 -0.000000 -0.000000 -0.000000 -0.000000 -0.000000 -0.000000 -0.000000 -0.000000 -0.000000 -0.000000 -0.000000 -0.000000 -0.000000 -0.000000 -0.000000 -0.000000 -0.000000 -0.000000 -0.000000 -0.000000 -0.000000 -0.000000 -0.000000 -0.000000 -0.000000 -0.000000 -0.000000 -0.000000 -0.000000 -0.000000 -0.000000 -0.000000 -0.000000 -0.000000 -0.000000 -0.000000 -0.000000 -0.000000 -0.000000 -0.000000 -0.000000 -0.000000 -0.000000 -0.000000 -0.000000 -0.000000 -0.000000 -0.000000 -0.000000 -0.000000 -0.000000 -0.000000 -0.000000 -0.000000 -0.000000 -0.000000 -0.000000 -0.000000 -0.000000 -0.000000 -0.000000 -0.000000 -0.000000 -0.000000 -0.000000 -0.000000 -0.000000 -0.000000 -0.000000 -0.000000 -0.000000 -0.000000 -0.000000 -0.000000 -0.000000 -0.000000 -0.000000 -0.000000 -0.000000 -0.000000 -0.000000 -0.000000 -0.000000 -0.000000 -0.000000 -0.000000 -0.000000 -0.000000 -0.000000 -0.000000 -0.000000 -0.000000 -0.000000 -0.000000 -0.000000 -0.000000 -0.000000 -0.000000 -0.000000 -0.000000 -0.000000 -0.000000 -0.000000 -0.000000 -0.000000 -0.000000 -0.000000 -0.000000 -0.000000 -0.000000 -0.000000 -0.000000 -0.000000 -0.000000 -0.000000 -0.000000 -0.000000 -0.000000 -0.000000 -0.000000 -0.000000 -0.000000 -0.000000 -0.000000 -0.000000 -0.000000 -0.000000 -0.000000 -0.000000 -0.000000 -0.000000 -0.000000 -0.000000 -0.000000 -0.000000 -0.000000 -0.000000 -0.000000 -0.000000 -0.000000 -0.000000 -0.000000 -0.000000 -0.000000 -0.000000 -0.000000 -0.000000 -0.000000 -0.000000 -0.000000 -0.000000 -0.000000 -0.000000 -0.000000 -0.000000 -0.000000 -0.000000 -0.000000 -0.000000 -0.000000 -0.000000 -0.000000 -0.000000 -0.000000 -0.000000 -0.000000 -0.000000 -0.000000 -0.000000 -0.000000 -0.000000 -0.000000 -0.000000 -0.000000 -0.000000 -0.000000 -0.000000 -0.000000 -0.000000 -0.000000 -0.000000 -0.000000 -0.000000 -0.000000 -0.000000 -0.000000 -0.000000 -0.000000 -0.000000 -0.000000 -0.000000 -0.000000 -0.000000 -0.000000 -0.000000 -0.000000 -0.000000 -0.000000 -0.000000 -0.000000 -0.000000 -0.000000 -0.000000 -0.000000 -0.000000 -0.000000 -0.000000 -0.000000 -0.000000 -0.000000 -0.000000 -0.000000 -0.000000 -0.000000 -0.000000 -0.000000 -0.000000 -0.000000 -0.000000 -0.000000 -0.000000 -0.000000 -0.000000 -0.000000 -0.000000 -0.000000 -0.000000 -0.000000 -0.000000 -0.000000 -0.000000 -0.000000 -0.000000 -0.000000 -0.000000 -0.000000 -0.000000 -0.000000 -0.000000 -0.000000 -0.000000 -0.000000 -0.000000 -0.000000 -0.000000 -0.000000 -0.000000 -0.000000 -0.000000 -0.000000 -0.000000 -0.000000 -0.000000 -0.000000 -0.000000 -0.000000 -0.000000 -0.000000 -0.000000 -0.000000 -0.000000 -0.000000 -0.000000 -0.000000 -0.000000 -0.000000 -0.000000 -0.000000 -0.000000 -0.000000 -0.000000 -0.000000 -0.000000 -0.000000 -0.000000 -0.000000 -0.000000 -0.000000 -0.000000 -0.000000 -0.000000 -0.000000 -0.000000 -0.000000 -0.000000 -0.000000 -0.000000 -0.000000 -0.000000 -0.000000 -0.000000 -0.000000 -0.000000 -0.000000 -0.000000 -0.000000 -0.000000 -0.000000 -0.000000 -0.000000 -0.000000 -0.000000 -0.000000 -0.000000 -0.000000 -0.000000 -0.000000 -0.000000 -0.000000 -0.000000 -0.000000 -0.000000 -0.000000 -0.000000 -0.000000 -0.000000 -0.000000 -0.000000 -0.000000 -0.000000 -0.000000 -0.000000 -0.000000 -0.000000 -0.000000 -0.000000 -0.000000 -0.000000 -0.000000 -0.000000 -0.000000 -0.000000 -0.000000 -0.000000 -0.000000 -0.000000 -0.000000 -0.000000 -0.000000 -0.000000 -0.000000 -0.000000 -0.000000 -0.000000 -0.000000 -0.000000 -0.000000 -0.000000 -0.000000 -0.000000 -0.000000 -0.000000 -0.000000 -0.000000 -0.000000 -0.000000 -0.000000 -0.000000 -0.000000 -0.000000 -0.000000 -0.000000 -0.000000 -0.000000 -0.000000 -0.000000 -0.000000 -0.000000 -0.000000 -0.000000 -0.000000 -0.000000 -0.000000 -0.000000 -0.000000 -0.000000 -0.000000 -0.000000 -0.000000 -0.000000 -0.000000 -0.000000 -0.000000 -0.000000 -0.000000 -0.000000 -0.000000 -0.000000 -0.000000 -0.000000 -0.000000 -0.000000 -0.000000 -0.000000 -0.000000 -0.000000 -0.000000 -0.000000 -0.000000 -0.000000 -0.000000 -0.000000 -0.000000 -0.000000 -0.000000 -0.000000 -0.000000 -0.000000 -0.000000 -0.000000 -0.000000 -0.000000 -0.000000 -0.000000 -0.000000 -0.000000 -0.000000 -0.000000 -0.000000 -0.000000 -0.000000 -0.000000 -0.000000 -0.000000 -0.000000 -0.000000 -0.000000 -0.000000 -0.000000 -0.000000 -0.000000 -0.000000 -0.000000 -0.000000 -0.000000 -0.000000 -0.000000 -0.000000 -0.000000 -0.000000 -0.000000 -0.000000 -0.000000 -0.000000 -0.000000 -0.000000 -0.000000 -0.000000 -0.000000 0.000000 0.000000 0.000000 -0.000000 -0.000000 -0.000000 0.000000 0.000000 0.000000 0.000000 0.000000 0.000000 0.000000 0.000000 0.000000 0.000000 0.000000 0.000000 0.000000 0.000000 0.000000 0.000000 0.000000 0.000000 0.000000 0.000000 0.000000 0.000000 0.000000 0.000000 0.000000 0.000000 0.000000 0.000000 0.000000 0.000000 0.000000 0.000000 0.000000 0.000000 0.000000 0.000000 0.000000 0.000000 0.000000 0.000000 0.000000 0.000000 0.000000 0.000000 0.000000 0.000000 0.000000 0.000000 0.000001 0.000001 0.000001 0.000001 0.000001 0.000001 0.000001 0.000001 0.000001 0.000001 0.000001 0.000001 0.000001 0.000001 0.000001 0.000001 0.000001 0.000001 0.000002 0.000002 0.000002 0.000002 0.000002 0.000002 0.000003 0.000003 0.000003 0.000003 0.000003 0.000003 0.000004 0.000004 0.000004 0.000004 0.000004 0.000004 0.000007 0.000007 0.000007 0.000007 0.000007 0.000006 0.000010 0.000010 0.000010 0.000010 0.000010 0.000010 0.000015 0.000015 0.000015 0.000015 0.000015 0.000014 0.000022 0.000022 0.000022 0.000022 0.000022 0.000021 0.000033 0.000033 0.000033 0.000033 0.000032 0.000031 0.000048 0.000048 0.000048 0.000048 0.000047 0.000046 0.000071 0.000071 0.000071 0.000071 0.000069 0.000068 0.000104 0.000104 0.000104 0.000104 0.000102 0.000099 0.000151 0.000151 0.000151 0.000151 0.000148 0.000145 0.000219 0.000219 0.000219 0.000219 0.000215 0.000210 0.000316 0.000316 0.000316 0.000316 0.000310 0.000304 0.000455 0.000455 0.000455 0.000454 0.000446 0.000437 0.000652 0.000652 0.000652 0.000651 0.000639 0.000627 0.000929 0.000929 0.000929 0.000928 0.000913 0.000895 0.001320 0.001320 0.001320 0.001318 0.001297 0.001273 0.001866 0.001866 0.001866 0.001863 0.001834 0.001801 0.002627 0.002627 0.002627 0.002623 0.002583 0.002538 0.003680 0.003680 0.003680 0.003674 0.003621 0.003560 0.005131 0.005131 0.005131 0.005124 0.005052 0.004972 0.007120 0.007120 0.007120 0.007111 0.007017 0.006913 0.009833 0.009833 0.009833 0.009821 0.009701 0.009572 0.013509 0.013509 0.013509 0.013495 0.013355 0.013210 0.018463 0.018463 0.018463 0.018450 0.018311 0.018191 0.025090 0.025090 0.025090 0.025085 0.025030 0.025061 0.033876 0.033876 0.033876 0.033904 0.034163 0.034701 0.045377 0.045377 0.045377 0.045501 0.046705 0.048728 0.060133 0.060133 0.060133 0.060510 0.064290 0.070489 0.078418 0.078418 0.078418 0.079371 0.089614 0.107804 0.099801 0.099801 0.099801 0.101763 0.124498 0.182728 0.122855 0.122855 0.122855 0.125995 0.164207 0.273532 0.448514 0.678356 0.926505 1.217466 1.568366 1.995110 2.514435 3.144665 3.906033 4.820762 5.912985 7.208503 8.734367 10.518255 12.587623 14.968593 17.684567 20.754550 24.191191 27.998547 32.169636 36.683822 41.504132 46.574642 51.818047 57.133624 62.395744 67.453151 72.129186 76.223130 79.512810 81.758542 82.708424 82.104912 79.692494 75.226181 68.480428 59.257958 47.397926 32.782733 15.342828 -4.941246 -28.040443 -53.883901 -82.374001 -113.417744 -146.993641 -183.298976 -223.079534 -268.370838 -324.163774 -402.154685 -529.249506 -768.016317 -1258.561140 -2573.056271 -2190.055811 2234.983192 2632.879971 1070.819549 295.717517 -554.601215 -2385.087465 -2682.477869 2740.681315 3991.660012 2653.305552 2309.800237 2181.633961 2092.216688 1929.965388 1553.891430 686.656621 -1668.596960 -2674.369400 5432.840073 7817.169721 6241.354233 5647.291112 5030.113593 5921.324197 7761.534611 7923.237330 9188.562798 9564.421098 10358.609710 13790.988604 12545.960864 11339.057087 12872.687963 12412.828344 11878.042618 12191.493635 12023.640935 12625.338360 13365.755424 13405.094622 14509.633343 14207.795471 15391.634619 16754.055835 18084.685050 18351.628229 18351.628229 18351.628229 0.146266 0.146266 0.146266 0.150238 0.199164 0.330369 0.494962 0.697309 0.938710 1.228592 1.580450 2.009105 2.530904 3.164026 3.928637 4.846916 5.942947 7.242465 8.772427 10.560387 12.633636 15.018091 17.736907 20.808800 24.246086 28.052463 32.220560 36.729341 41.541449 46.600594 51.829170 57.126231 62.366037 67.397363 72.043744 76.104842 79.359064 81.567507 82.479238 81.837849 79.389090 74.889312 68.114319 58.868143 46.991174 32.367024 14.927562 -5.344417 -28.415294 -54.203999 -82.589731 -113.427135 -146.577149 -181.973663 -219.772106 -260.682172 -306.706864 -362.757554 -440.053840 -562.269410 -771.230948 -1059.465424 -730.381419 856.807581 1157.936505 765.446428 418.875409 54.339011 -303.410856 -92.980152 1586.109019 2289.888696 2244.583678 2184.454918 2182.733503 2192.944047 2176.059177 2086.207221 1863.602746 1715.136794 2394.093788 4515.944048 5763.469948 6108.597553 6255.996714 6542.599300 7157.401047 8079.534205 8900.241370 9795.328497 10526.745209 11393.787991 12401.617561 12357.269590 12366.514162 12854.118750 13120.334899 13158.438837 13541.781921 13786.923366 14054.536473 14844.241111 15183.993325 14980.362011 14301.662511 15437.621206 17062.079013 18144.037643 18329.071599 18329.071599 18329.071599 0.159594 0.159594 0.159594 0.164131 0.216876 0.354860 0.517042 0.713317 0.951333 1.240927 1.594164 2.025108 2.549783 3.186232 3.954559 4.876899 5.977283 7.281369 8.816007 10.608605 12.686267 15.074677 17.796705 20.870736 24.308709 28.113907 32.278518 36.781055 41.583715 46.629803 51.841366 57.117207 62.331466 67.332954 71.945433 75.969004 79.182739 81.348623 82.216833 81.532253 79.042071 74.504153 67.695831 58.422607 46.526230 31.891603 14.452013 -5.807609 -28.849403 -54.582842 -82.865606 -113.503654 -146.248544 -180.789095 -216.731584 -253.553756 -290.493532 -326.269016 -358.349686 -380.928379 -378.345849 -300.485338 -61.852696 283.425562 494.271212 539.134563 525.125133 527.142502 619.589211 907.305325 1362.359616 1734.857680 1947.831696 2079.432674 2184.149715 2285.155121 2399.151739 2548.003868 2773.457232 3159.593762 3811.498955 4670.618122 5446.406113 6058.616644 6604.088027 7173.952391 7822.013103 8540.495559 9277.706116 9996.295708 10671.278627 11319.756378 11894.423704 12318.338542 12673.689193 13010.113903 13301.949209 13588.057605 13903.665244 14240.794019 14625.588431 15066.834086 15512.587537 15871.173342 16256.593892 16901.024164 17676.751108 18233.107314 18336.078825 18336.078825 18336.078825 0.161468 0.161468 0.161468 0.166166 0.219242 0.357882 0.520010 0.715771 0.953472 1.243099 1.596611 2.027975 2.553169 3.190216 3.959211 4.882278 5.983442 7.288345 8.823819 10.617247 12.695697 15.084812 17.807412 20.881821 24.319912 28.124892 32.288872 36.790284 41.591245 46.634987 51.843496 57.115531 62.325210 67.321352 71.927758 75.944611 79.151098 81.309367 82.169791 81.477488 78.979898 74.435161 67.620881 58.342818 46.442961 31.806433 14.366757 -5.890798 -28.927710 -54.651978 -82.917923 -113.523896 -146.204349 -180.609779 -216.260600 -252.442074 -287.961260 -320.579844 -345.706185 -353.520026 -323.503778 -219.460323 -12.630892 244.305941 429.217681 509.767868 541.013002 591.115849 726.492013 995.122699 1357.164668 1682.628912 1909.872493 2064.039356 2184.428865 2299.445511 2433.473797 2617.163787 2896.597805 3332.143317 3957.397782 4703.853101 5424.253607 6058.693876 6647.950563 7251.640536 7904.777333 8604.794827 9320.212906 10017.142560 10676.783616 11296.074368 11849.206139 12308.176447 12696.039469 13034.659770 13334.491153 13627.924925 13943.402731 14289.350542 14680.574484 15120.522989 15575.561265 16019.377334 16497.293459 17088.776197 17762.097058 18245.369366 18338.557222 18338.557222 18338.557222 0.161468 0.161468 0.161468 0.166166 0.219242 0.357882 0.520010 0.715771 0.953472 1.243099 1.596611 2.027975 2.553169 3.190216 3.959211 4.882278 5.983442 7.288345 8.823819 10.617247 12.695697 15.084812 17.807412 20.881821 24.319912 28.124892 32.288872 36.790284 41.591245 46.634987 51.843496 57.115531 62.325210 67.321352 71.927758 75.944611 79.151098 81.309367 82.169791 81.477488 78.979898 74.435161 67.620881 58.342818 46.442961 31.806433 14.366757 -5.890798 -28.927710 -54.651978 -82.917923 -113.523896 -146.204349 -180.609779 -216.260600 -252.442074 -287.961260 -320.579844 -345.706185 -353.520026 -323.503778 -219.460323 -12.630892 244.305941 429.217681 509.767868 541.013002 591.115849 726.492013 995.122699 1357.164668 1682.628912 1909.872493 2064.039356 2184.428865 2299.445511 2433.473797 2617.163787 2896.597805 3332.143317 3957.397782 4703.853101 5424.253607 6058.693876 6647.950563 7251.640536 7904.777333 8604.794827 9320.212906 10017.142560 10676.783616 11296.074368 11849.206139 12308.176447 12696.039469 13034.659770 13334.491153 13627.924925 13943.402731 14289.350542 14680.574484 15120.522989 15575.561265 16019.377334 16497.293459 17088.776197 17762.097058 18245.369366 18338.557222 18338.557222 18338.557222 0.161468 0.161468 0.161468 0.166166 0.219242 0.357882 0.520010 0.715771 0.953472 1.243099 1.596611 2.027975 2.553169 3.190216 3.959211 4.882278 5.983442 7.288345 8.823819 10.617247 12.695697 15.084812 17.807412 20.881821 24.319912 28.124892 32.288872 36.790284 41.591245 46.634987 51.843496 57.115531 62.325210 67.321352 71.927758 75.944611 79.151098 81.309367 82.169791 81.477488 78.979898 74.435161 67.620881 58.342818 46.442961 31.806433 14.366757 -5.890798 -28.927710 -54.651978 -82.917923 -113.523896 -146.204349 -180.609779 -216.260600 -252.442074 -287.961260 -320.579844 -345.706185 -353.520026 -323.503778 -219.460323 -12.630892 244.305941 429.217681 509.767868 541.013002 591.115849 726.492013 995.122699 1357.164668 1682.628912 1909.872493 2064.039356 2184.428865 2299.445511 2433.473797 2617.163787 2896.597805 3332.143317 3957.397782 4703.853101 5424.253607 6058.693876 6647.950563 7251.640536 7904.777333 8604.794827 9320.212906 10017.142560 10676.783616 11296.074368 11849.206139 12308.176447 12696.039469 13034.659770 13334.491153 13627.924925 13943.402731 14289.350542 14680.574484 15120.522989 15575.561265 16019.377334 16497.293459 17088.776197 17762.097058 18245.369366 18338.557222 18338.557222 18338.557222 -1398.337287 -1448.689144 -1512.903915 -1597.714136 -1718.598372 -1907.248605 -2259.259656 -2423.359021 -887.776991 22.266054 -866.385836 -1638.426845 -453.352175 937.663298 352.748514 -362.728745 -1115.403794 -816.601348 1002.498521 1136.777719 482.281218 31.256676 -435.123930 -1142.033932 -696.233425 1339.570640 1957.020903 2077.144659 2413.712823 2731.776525 3788.804331 4828.278293 3996.070873 3933.495407 4278.035226 4757.120322 5779.983259 6227.099342 7198.530606 7884.461872 8213.696081 9114.872231 10414.526981 10557.713610 10797.954522 11343.664043 12092.386962 12217.807153 13383.700827 14197.179897 12801.985995 12565.362657 13145.565367 13180.362072 13180.362072 13180.362072 -706.325791 -61.635934 4043.289369 16081.905049 15562.560140 13805.289698 13670.637276 13252.004172 12952.165294 16077.495907 14544.120221 13106.961860 15810.967850 13351.938678 15270.369291 15336.106669 14050.026706 16037.230923 15592.459526 14659.691563 15211.167594 14429.595008 13552.813757 13038.554775 14072.066202 13157.934901 15869.980521 15297.544435 13336.802581 14648.067481 14447.196608 15274.024187 13102.556881 13160.011408 13541.520636 13157.145360 16185.388131 15820.273145 13768.850692 15565.447135 15398.150517 14454.069211 15019.252203 16439.248060 15041.289938 15382.374683 13153.503224 15884.027530 13817.839138 15255.582578 15250.411908 11263.839771 13055.450284 13332.230931 13332.230931 13332.230931 -9.469151 54.453197 14313.502875 4894.666997 13309.961436 14042.060732 15185.186050 15770.355322 14753.945709 12668.434081 12362.691354 14727.096735 12379.556605 14494.359552 15240.331795 14267.890908 12082.739619 15364.434789 14751.455295 15051.547529 13341.024718 13851.461580 14747.848522 15532.203271 15103.134736 13394.438703 14607.805496 15451.091948 13795.980266 15822.908428 11599.999309 14831.938697 13359.434350 13155.869731 12976.288380 13430.415952 11741.642846 15011.634680 12519.567019 13638.053168 13900.223926 13102.296005 10763.882929 15159.203866 11689.063583 11607.997107 13502.114980 17276.539049 12099.617302 16897.118499 17216.496649 11816.012841 13368.805081 13597.971159 13597.971159 13597.971159 1309.352666 3027.571645 14060.655062 12893.450228 9806.389028 14898.545579 14889.047438 13731.036166 11514.264315 15886.842465 13961.772952 13573.106769 13528.257728 14568.057451 14076.381337 12970.085000 14762.281865 14782.870623 14611.709927 16036.015104 15562.732568 14077.322102 8263.395649 13990.412790 13515.636513 14270.277757 13691.884340 15416.900287 16747.624426 14834.520647 15444.871191 15531.490949 16287.019103 14469.365269 15311.808425 10023.505384 13918.227642 15134.709348 14323.189120 13559.073370 13450.006185 13503.257113 14326.886059 13248.735621 12413.314313 13352.8433