<VTKFile type="PolyData">
<PolyData>
<Piece NumberOfPoints="8632" NumberOfVerts="8632" NumberOfLines="0" NumberOfStrips="0" NumberOfPolys="0">
<PointData>
<DataArray type="Float64" Name="Pressure" format="ascii">
 -2.315266 -2.315266 -2.315266 -2.349811 -2.737925 -3.744323 -4.896553 -6.229212 -7.746403 -9.461021 -11.397536 -13.587891 -16.068959 -18.881469 -22.069692 -25.681412 -29.768002 -34.384530 -39.589847 -45.446644 -52.021478 -59.384752 -67.610642 -76.776982 -86.965079 -98.259477 -110.747649 -124.519626 -139.667545 -156.285116 -174.467008 -194.308129 -215.902810 -239.343875 -264.721592 -292.122508 -321.628166 -353.313727 -387.246525 -423.484609 -462.075348 -503.054206 -546.443813 -592.253486 -640.479335 -691.105051 -744.103351 -799.437728 -857.063573 -916.926329 -978.951365 -1043.013368 -1108.857813 -1175.920340 -1242.962519 -1307.803970 -1367.781339 -1419.659106 -1457.420840 -1469.340108 -1433.148493 -1317.233385 -1132.242491 -961.828312 -837.063636 -704.571400 -537.889259 -406.457867 -360.236728 -359.283244 -336.790511 -254.601904 -159.545489 -134.512529 -162.883773 -160.213445 -40.651710 235.632771 609.410733 970.736239 1247.101746 1450.215230 1677.302875 2030.835060 2534.572056 3132.471060 3784.036149 4474.067432 5158.887564 5795.410603 6385.572733 6969.791510 7577.827538 8188.745733 8774.947622 9354.727184 9936.448109 10490.566388 10995.682116 11454.520998 11873.552024 12241.146971 12517.875171 12677.475466 12750.852939 12785.402459 12810.315951 12834.599320 12840.835425 12840.835425 12840.835425 -2.315266 -2.315266 -2.315266 -2.349811 -2.737925 -3.744323 -4.896553 -6.229212 -7.746403 -9.461021 -11.397536 -13.587891 -16.068959 -18.881469 -22.069692 -25.681412 -29.768002 -34.384530 -39.589847 -45.446644 -52.021478 -59.384752 -67.610642 -76.776982 -86.965079 -98.259477 -110.747649 -124.519626 -139.667545 -156.285116 -174.467008 -194.308129 -215.902810 -239.343875 -264.721592 -292.122508 -321.628166 -353.313727 -387.246525 -423.484609 -462.075348 -503.054206 -546.443813 -592.253486 -640.479335 -691.105051 -744.103351 -799.437728 -857.063573 -916.926329 -978.951365 -1043.013368 -1108.857813 -1175.920340 -1242.962519 -1307.803970 -1367.781339 -1419.659106 -1457.420840 -1469.340108 -1433.148493 -1317.233385 -1132.242491 -961.828312 -837.063636 -704.571400 -537.889259 -406.457867 -360.236728 -359.283244 -336.790511 -254.601904 -159.545489 -134.512529 -162.883773 -160.213445 -40.651710 235.632771 609.410733 970.736239 1247.101746 1450.215230 1677.302875 2030.835060 2534.572056 3132.471060 3784.036149 4474.067432 5158.887564 5795.410603 6385.572733 6969.791510 7577.827538 8188.745733 8774.947622 9354.727184 9936.448109 10490.566388 10995.682116 11454.520998 11873.552024 12241.146971 12517.875171 12677.475466 12750.852939 12785.402459 12810.315951 12834.599320 12840.835425 12840.835425 12840.835425 -2.315266 -2.315266 -2.315266 -2.349811 -2.737925 -3.744323 -4.896553 -6.229212 -7.746403 -9.461021 -11.397536 -13.587891 -16.068959 -18.881469 -22.069692 -25.681412 -29.768002 -34.384530 -39.589847 -45.446644 -52.021478 -59.384752 -67.610642 -76.776982 -86.965079 -98.259477 -110.747649 -124.519626 -139.667545 -156.285116 -174.467008 -194.308129 -215.902810 -239.343875 -264.721592 -292.122508 -321.628166 -353.313727 -387.246525 -423.484609 -462.075348 -503.054206 -546.443813 -592.253486 -640.479335 -691.105051 -744.103351 -799.437728 -857.063573 -916.926329 -978.951365 -1043.013368 -1108.857813 -1175.920340 -1242.962519 -1307.803970 -1367.781339 -1419.659106 -1457.420840 -1469.340108 -1433.148493 -1317.233385 -1132.242491 -961.828312 -837.063636 -704.571400 -537.889259 -406.457867 -360.236728 -359.283244 -336.790511 -254.601904 -159.545489 -134.512529 -162.883773 -160.213445 -40.651710 235.632771 609.410733 970.736239 1247.101746 1450.215230 1677.302875 2030.835060 2534.572056 3132.471060 3784.036149 4474.067432 5158.887564 5795.410603 6385.572733 6969.791510 7577.827538 8188.745733 8774.947622 9354.727184 9936.448109 10490.566388 10995.682116 11454.520998 11873.552024 12241.146971 12517.875171 12677.475466 12750.852939 12785.402459 12810.315951 12834.599320 12840.835425 12840.835425 12840.835425 -2.303125 -2.303125 -2.303125 -2.336983 -2.722065 -3.721420 -4.875861 -6.216214 -7.739006 -9.456010 -11.393213 -13.583501 -16.064171 -18.876126 -22.063701 -25.674705 -29.760520 -34.376217 -39.580647 -45.436501 -52.010337 -59.372559 -67.597344 -76.762529 -86.949424 -98.242577 -110.729466 -124.500128 -139.646708 -156.262924 -174.443455 -194.283220 -215.876563 -239.316322 -264.692782 -292.092508 -321.597061 -353.281625 -387.213553 -423.450915 -462.041099 -503.019585 -546.409018 -592.218729 -640.444856 -691.071173 -744.070616 -799.407289 -857.038173 -916.912781 -978.966708 -1043.099850 -1109.116906 -1176.576699 -1244.327196 -1310.066660 -1371.052187 -1424.919429 -1466.803412 -1486.254138 -1458.322053 -1341.277380 -1121.678773 -938.237959 -836.637465 -718.974594 -522.031888 -370.556255 -341.597699 -364.297407 -355.659675 -258.978751 -123.993720 -111.452766 -168.589478 -197.288240 -95.601299 200.285012 614.284297 1007.945979 1283.749409 1447.063860 1625.648836 1953.952163 2475.105927 3087.893388 3741.887024 4451.042169 5159.102605 5808.196553 6400.206202 6985.700840 7610.484997 8240.254390 8809.107723 9362.350800 9931.974151 10477.471687 10978.191544 11445.274647 11882.441708 12280.054593 12580.482924 12733.862687 12790.903873 12816.593205 12825.643140 12840.594664 12846.308528 12846.308528 12846.308528 -2.171677 -2.171677 -2.171677 -2.198383 -2.529293 -3.416597 -4.609063 -6.078341 -7.664583 -9.406300 -11.350225 -13.539726 -16.016373 -18.822750 -22.003838 -25.607684 -29.685753 -34.293141 -39.488703 -45.335134 -51.898994 -59.250697 -67.464437 -76.618074 -86.792950 -98.073655 -110.547717 -124.305235 -139.438426 -156.041093 -174.208012 -194.034216 -215.614176 -239.040877 -264.404765 -291.792584 -321.286091 -352.960674 -386.883897 -423.114034 -461.698664 -502.673429 -546.061113 -591.871194 -640.100089 -690.732330 -743.743013 -799.102120 -856.782058 -916.771850 -979.106826 -1043.935687 -1111.672721 -1183.246889 -1260.457142 -1337.341010 -1407.399602 -1481.972380 -1568.546555 -1675.092200 -1796.861020 -1789.284321 -1023.397987 -577.416580 -869.931278 -1040.637103 -344.249360 175.773622 -117.995057 -430.714443 -701.481361 -390.871035 406.467182 236.109420 -233.224597 -654.803333 -874.507365 -263.795003 769.995964 1502.180066 1848.045657 1453.788843 942.176303 912.344892 1744.392650 2602.300637 3205.179049 4115.209861 5107.023503 5898.835812 6511.486298 7097.236456 7975.465918 8959.431302 9290.647329 9427.360117 9852.399754 10290.289417 10745.866677 11361.047987 12039.446394 12802.902705 13468.729940 13476.223748 13308.031320 13342.489413 13123.842517 12930.405295 12906.911927 12906.911927 12906.911927 -1.985412 -1.985412 -1.985412 -2.006157 -2.245040 -2.877918 -4.026468 -5.839954 -7.558777 -9.342450 -11.298665 -13.488973 -15.961701 -18.761995 -21.935811 -25.531562 -29.600843 -34.198793 -39.384279 -45.219998 -51.772518 -59.112261 -67.313443 -76.453948 -86.615156 -97.881702 -110.341174 -124.083739 -139.201696 -155.788946 -173.940374 -193.751141 -215.315866 -238.727696 -264.077264 -291.451517 -320.932435 -352.595638 -386.508933 -422.730832 -461.309133 -502.279680 -545.665439 -591.476117 -639.708592 -690.348621 -743.374655 -798.765622 -856.517173 -916.677666 -979.432719 -1045.312239 -1115.713449 -1194.288752 -1290.957552 -1378.780857 -1451.899779 -1548.708227 -1687.667551 -1901.716914 -2277.905974 -2423.467468 -827.387271 12.686950 -945.646417 -1572.580668 -122.544989 990.627189 207.840294 -530.216924 -1287.598868 -741.558619 1086.537016 755.695982 -312.558030 -1270.836159 -2474.826200 -1485.839324 406.888147 2582.751701 3529.912704 1530.448570 -25.109352 -1778.718034 665.410504 2749.891935 1901.427355 3474.853289 4813.523055 5426.690097 6430.909842 7037.574140 7707.239504 10960.673705 10612.777481 9178.090215 9883.845116 10101.075651 10256.562180 11823.176965 12761.395488 13661.822702 15359.951695 14536.247465 13285.416827 14744.700573 14621.682265 13151.294943 13009.268825 13009.268825 13009.268825 -1.959177 -1.959177 -1.959177 -1.979078 -2.206194 -2.792948 -1.778115 -1.778115 -1.778115 -1.791096 -1.938547 -2.260485 -1.499275 -1.499275 -1.499275 -1.505033 -1.566269 -1.670192 -1.249761 -1.249761 -1.249761 -1.251933 -1.273409 -1.308937 -1.034648 -1.034648 -1.034648 -1.035248 -1.040982 -1.051530 -0.852477 -0.852477 -0.852477 -0.852481 -0.852405 -0.853864 -0.699757 -0.699757 -0.699757 -0.699563 -0.697574 -0.695920 -0.572529 -0.572529 -0.572529 -0.572289 -0.569865 -0.567355 -0.467016 -0.467016 -0.467016 -0.466784 -0.464459 -0.461917 -0.379833 -0.379833 -0.379833 -0.379627 -0.377568 -0.375273 -0.308034 -0.308034 -0.308034 -0.307858 -0.306096 -0.304117 -0.249091 -0.249091 -0.249091 -0.248942 -0.247460 -0.245789 -0.200849 -0.200849 -0.200849 -0.200725 -0.199490 -0.198094 -0.161485 -0.161485 -0.161485 -0.161383 -0.160359 -0.159202 -0.129463 -0.129463 -0.129463 -0.129378 -0.128534 -0.127580 -0.103492 -0.103492 -0.103492 -0.103422 -0.102728 -0.101944 -0.082491 -0.082491 -0.082491 -0.082434 -0.081866 -0.081224 -0.065562 -0.065562 -0.065562 -0.065515 -0.065052 -0.064528 -0.051955 -0.051955 -0.051955 -0.051917 -0.051540 -0.051114 -0.041053 -0.041053 -0.041053 -0.041022 -0.040717 -0.040371 -0.032344 -0.032344 -0.032344 -0.032319 -0.032072 -0.031793 -0.025407 -0.025407 -0.025407 -0.025388 -0.025189 -0.024964 -0.019900 -0.019900 -0.019900 -0.019884 -0.019725 -0.019544 -0.015541 -0.015541 -0.015541 -0.015528 -0.015401 -0.015256 -0.012101 -0.012101 -0.012101 -0.012091 -0.011989 -0.011874 -0.009395 -0.009395 -0.009395 -0.009387 -0.009306 -0.009214 -0.007272 -0.007272 -0.007272 -0.007266 -0.007202 -0.007129 -0.005613 -0.005613 -0.005613 -0.005608 -0.005557 -0.005500 -0.004319 -0.004319 -0.004319 -0.004315 -0.004275 -0.004230 -0.003314 -0.003314 -0.003314 -0.003311 -0.003279 -0.003244 -0.002535 -0.002535 -0.002535 -0.002532 -0.002508 -0.002480 -0.001933 -0.001933 -0.001933 -0.001931 -0.001912 -0.001891 -0.001470 -0.001470 -0.001470 -0.001469 -0.001454 -0.001437 -0.001115 -0.001115 -0.001115 -0.001113 -0.001102 -0.001089 -0.000843 -0.000843 -0.000843 -0.000842 -0.000833 -0.000823 -0.000635 -0.000635 -0.000635 -0.000634 -0.000627 -0.000620 -0.000477 -0.000477 -0.000477 -0.000477 -0.000471 -0.000465 -0.000357 -0.000357 -0.000357 -0.000357 -0.000353 -0.000348 -0.000267 -0.000267 -0.000267 -0.000267 -0.000264 -0.000260 -0.000199 -0.000199 -0.000199 -0.000199 -0.000196 -0.000194 -0.000148 -0.000148 -0.000148 -0.000147 -0.000146 -0.000144 -0.000109 -0.000109 -0.000109 -0.000109 -0.000108 -0.000106 -0.000081 -0.000081 -0.000081 -0.000081 -0.000080 -0.000078 -0.000059 -0.000059 -0.000059 -0.000059 -0.000059 -0.000058 -0.000044 -0.000044 -0.000044 -0.000043 -0.000043 -0.000042 -0.000032 -0.000032 -0.000032 -0.000032 -0.000031 -0.000031 -0.000023 -0.000023 -0.000023 -0.000023 -0.000023 -0.000023 -0.000017 -0.000017 -0.000017 -0.000017 -0.000017 -0.000016 -0.000012 -0.000012 -0.000012 -0.000012 -0.000012 -0.000012 -0.000009 -0.000009 -0.000009 -0.000009 -0.000009 -0.000009 -0.000006 -0.000006 -0.000006 -0.000006 -0.000006 -0.000006 -0.000005 -0.000005 -0.000005 -0.000005 -0.000005 -0.000004 -0.000003 -0.000003 -0.000003 -0.000003 -0.000003 -0.000003 -0.000002 -0.000002 -0.000002 -0.000002 -0.000002 -0.000002 -0.000002 -0.000002 -0.000002 -0.000002 -0.000002 -0.000002 -0.000001 -0.000001 -0.000001 -0.000001 -0.000001 -0.000001 -0.000001 -0.000001 -0.000001 -0.000001 -0.000001 -0.000001 -0.000001 -0.000001 -0.000001 -0.000001 -0.000001 -0.000001 -0.000000 -0.000000 -0.000000 -0.000000 -0.000000 -0.000000 -0.000000 -0.000000 -0.000000 -0.000000 -0.000000 -0.000000 -0.000000 -0.000000 -0.000000 -0.000000 -0.000000 -0.000000 -0.000000 -0.000000 -0.000000 -0.000000 -0.000000 -0.000000 -0.000000 -0.000000 -0.000000 -0.000000 -0.000000 -0.000000 -0.000000 -0.000000 -0.000000 -0.000000 -0.000000 -0.000000 -0.000000 -0.000000 -0.000000 -0.000000 -0.000000 -0.000000 -0.000000 -0.000000 -0.000000 -0.000000 -0.000000 -0.000000 -0.000000 -0.000000 -0.000000 -0.000000 -0.000000 -0.000000 -0.000000 -0.000000 -0.000000 -0.000000 -0.000000 -0.000000 -0.000000 -0.000000 -0.000000 -0.000000 -0.000000 -0.000000 -0.000000 -0.000000 -0.000000 -0.000000 -0.000000 -0.000000 -0.000000 -0.000000 -0.000000 -0.000000 -0.000000 -0.000000 -0.000000 -0.000000 -0.000000 -0.000000 -0.000000 -0.000000 -0.000000 -0.000000 -0.000000 -0.000000 -0.000000 -0.000000 -0.000000 -0.000000 -0.000000 -0.000000 -0.000000 -0.000000 -0.000000 -0.000000 -0.000000 -0.000000 -0.000000 -0.000000 -0.000000 -0.000000 -0.000000 -0.000000 -0.000000 -0.000000 -0.000000 -0.000000 -0.000000 -0.000000 -0.000000 -0.000000 -0.000000 -0.000000 -0.000000 -0.000000 -0.000000 -0.000000 -0.000000 -0.000000 -0.000000 -0.000000 -0.000000 -0.000000 -0.000000 -0.000000 -0.000000 -0.000000 -0.000000 -0.000000 -0.000000 -0.000000 -0.000000 -0.000000 -0.000000 -0.000000 -0.000000 -0.000000 -0.000000 -0.000000 -0.000000 -0.000000 -0.000000 -0.000000 -0.000000 -0.000000 -0.000000 -0.000000 -0.000000 -0.000000 -0.000000 -0.000000 -0.000000 -0.000000 -0.000000 -0.000000 -0.000000 -0.000000 -0.000000 -0.000000 -0.000000 -0.000000 -0.000000 -0.000000 -0.000000 -0.000000 -0.000000 -0.000000 -0.000000 -0.000000 -0.000000 -0.000000 -0.000000 -0.000000 -0.000000 -0.000000 -0.000000 -0.000000 -0.000000 -0.000000 -0.000000 -0.000000 -0.000000 -0.000000 -0.000000 -0.000000 -0.000000 -0.000000 -0.000000 -0.000000 -0.000000 -0.000000 -0.000000 -0.000000 -0.000000 -0.000000 -0.000000 -0.000000 -0.000000 -0.000000 -0.000000 -0.000000 -0.000000 -0.000000 -0.000000 -0.000000 -0.000000 -0.000000 -0.000000 -0.000000 -0.000000 -0.000000 -0.000000 -0.000000 -0.000000 -0.000000 -0.000000 -0.000000 -0.000000 -0.000000 -0.000000 -0.000000 -0.000000 -0.000000 -0.000000 -0.000000 -0.000000 -0.000000 -0.000000 -0.000000 -0.000000 -0.000000 -0.000000 -0.000000 -0.000000 -0.000000 -0.000000 -0.000000 -0.000000 -0.000000 -0.000000 -0.000000 -0.000000 -0.000000 -0.000000 -0.000000 -0.000000 -0.000000 -0.000000 -0.000000 -0.000000 -0.000000 -0.000000 -0.000000 -0.000000 -0.000000 -0.000000 -0.000000 -0.000000 -0.000000 -0.000000 -0.000000 -0.000000 -0.000000 -0.000000 -0.000000 -0.000000 -0.000000 -0.000000 -0.000000 -0.000000 -0.000000 -0.000000 -0.000000 -0.000000 -0.000000 -0.000000 -0.000000 -0.000000 -0.000000 -0.000000 -0.000000 -0.000000 -0.000000 -0.000000 -0.000000 -0.000000 -0.000000 -0.000000 -0.000000 -0.000000 -0.000000 -0.000000 -0.000000 -0.000000 -0.000000 -0.000000 -0.000000 -0.000000 -0.000000 -0.000000 -0.000000 -0.000000 -0.000000 -0.000000 -0.000000 -0.000000 -0.000000 -0.000000 -0.000000 -0.000000 -0.000000 -0.000000 -0.000000 -0.000000 -0.000000 -0.000000 -0.000000 -0.000000 -0.000000 -0.000000 -0.000000 -0.000000 -0.000000 -0.000000 -0.000000 -0.000000 -0.000000 -0.000000 -0.000000 -0.000000 -0.000000 -0.000000 -0.000000 -0.000000 -0.000000 -0.000000 -0.000000 -0.000000 -0.000000 -0.000000 -0.000000 -0.000000 -0.000000 -0.000000 -0.000000 -0.000000 -0.000000 -0.000000 -0.000000 -0.000000 -0.000000 -0.000000 -0.000000 -0.000000 -0.000000 -0.000000 -0.000000 -0.000000 -0.000000 -0.000000 -0.000000 -0.000000 -0.000000 -0.000000 -0.000000 -0.000000 -0.000000 -0.000000 -0.000000 -0.000000 -0.000000 -0.000000 -0.000000 -0.000000 -0.000000 -0.000000 -0.000000 -0.000000 -0.000000 -0.000000 -0.000000 -0.000000 -0.000000 -0.000000 -0.000000 -0.000000 -0.000000 -0.000000 -0.000000 -0.000000 -0.000000 -0.000000 -0.000000 -0.000000 -0.000000 -0.000000 -0.000000 -0.000000 -0.000000 -0.000000 -0.000000 -0.000000 -0.000000 -0.000000 -0.000000 -0.000000 -0.000000 -0.000000 -0.000000 -0.000000 -0.000000 -0.000000 -0.000000 -0.000000 -0.000000 -0.000000 -0.000000 -0.000000 -0.000000 -0.000000 -0.000000 -0.000000 -0.000000 -0.000000 -0.000000 -0.000000 -0.000000 -0.000000 -0.000000 -0.000000 -0.000000 -0.000000 -0.000000 -0.000000 -0.000000 -0.000000 -0.000000 -0.000000 -0.000000 -0.000000 -0.000000 -0.000000 -0.000000 -0.000000 -0.000000 -0.000000 -0.000000 -0.000000 -0.000000 -0.000000 -0.000000 -0.000000 -0.000000 -0.000000 -0.000000 -0.000000 -0.000000 -0.000000 -0.000000 -0.000000 -0.000000 -0.000000 -0.000000 -0.000000 -0.000000 -0.000000 -0.000000 -0.000000 -0.000000 -0.000000 -0.000000 -0.000000 -0.000000 -0.000000 -0.000000 -0.000000 -0.000000 -0.000000 -0.000000 -0.000000 -0.000000 -0.000000 -0.000000 -0.000000 -0.000000 -0.000000 -0.000000 -0.000000 -0.000000 -0.000000 -0.000000 -0.000000 -0.000000 -0.000000 -0.000000 -0.000000 -0.000000 -0.000000 -0.000000 -0.000000 -0.000000 -0.000000 -0.000000 -0.000000 -0.000000 -0.000000 -0.000000 -0.000000 -0.000000 -0.000000 -0.000000 -0.000000 -0.000000 -0.000000 -0.000000 -0.000000 -0.000000 -0.000000 -0.000000 -0.000000 -0.000000 -0.000000 -0.000000 -0.000000 -0.000000 -0.000000 -0.000000 -0.000000 -0.000000 -0.000000 -0.000000 -0.000000 -0.000000 -0.000000 -0.000000 -0.000000 -0.000000 -0.000000 -0.000000 -0.000000 -0.000000 -0.000000 -0.000000 -0.000000 -0.000000 -0.000000 -0.000000 -0.000000 -0.000000 -0.000000 -0.000000 -0.000000 -0.000000 -0.000000 -0.000000 -0.000000 -0.000000 -0.000000 -0.000000 -0.000000 -0.000000 -0.000000 -0.000000 -0.000000 -0.000000 -0.000000 -0.000000 -0.000000 -0.000000 -0.000000 -0.000000 -0.000000 -0.000000 -0.000000 -0.000000 -0.000000 -0.000000 -0.000000 -0.000000 -0.000000 -0.000000 -0.000000 -0.000000 -0.000000 -0.000000 -0.000000 -0.000000 -0.000000 -0.000000 -0.000000 -0.000000 -0.000000 -0.000000 -0.000000 -0.000000 -0.000000 -0.000000 -0.000000 -0.000000 -0.000000 -0.000000 -0.000000 -0.000000 -0.000000 -0.000000 -0.000000 -0.000000 -0.000000 -0.000000 -0.000000 -0.000000 -0.000000 -0.000000 -0.000000 -0.000000 -0.000000 -0.000000 -0.000000 -0.000000 -0.000000 -0.000000 -0.000000 -0.000000 -0.000000 -0.000000 -0.000000 -0.000000 -0.000000 -0.000000 -0.000000 -0.000000 -0.000000 -0.000000 -0.000000 -0.000000 -0.000000 -0.000000 -0.000000 -0.000000 -0.000000 -0.000000 -0.000000 -0.000000 -0.000000 -0.000000 -0.000000 -0.000000 -0.000000 -0.000000 -0.000000 -0.000000 -0.000000 -0.000000 -0.000000 -0.000000 -0.000000 -0.000000 -0.000000 -0.000000 -0.000000 -0.000000 -0.000000 -0.000000 -0.000000 -0.000000 -0.000000 -0.000000 -0.000000 -0.000000 -0.000000 -0.000000 -0.000000 -0.000000 -0.000000 -0.000000 -0.000000 -0.000000 -0.000000 -0.000000 -0.000000 -0.000000 -0.000000 -0.000000 -0.000000 -0.000000 -0.000000 -0.000000 -0.000000 -0.000000 -0.000000 -0.000000 -0.000000 -0.000000 -0.000000 -0.000000 -0.000000 -0.000000 -0.000000 -0.000000 -0.000000 -0.000000 -0.000000 -0.000000 -0.000000 -0.000000 -0.000000 -0.000000 -0.000000 -0.000000 -0.000000 -0.000000 -0.000000 -0.000000 -0.000000 -0.000000 -0.000000 -0.000000 -0.000000 -0.000000 -0.000000 -0.000000 -0.000000 -0.000000 -0.000000 -0.000000 -0.000000 -0.000000 -0.000000 -0.000000 -0.000000 -0.000000 -0.000000 -0.000000 -0.000000 -0.000000 -0.000000 -0.000000 -0.000000 -0.000000 -0.000000 -0.000000 -0.000000 -0.000000 -0.000000 -0.000000 -0.000000 -0.000000 -0.000000 -0.000000 -0.000000 -0.000000 -0.000000 -0.000000 -0.000000 -0.000000 -0.000000 -0.000000 -0.000000 -0.000000 -0.000000 -0.000000 -0.000000 -0.000000 -0.000000 -0.000000 0.000000 0.000000 0.000000 -0.000000 -0.000000 -0.000000 0.000001 0.000001 0.000001 0.000001 0.000000 0.000000 0.000001 0.000001 0.000001 0.000001 0.000001 0.000001 0.000003 0.000003 0.000003 0.000003 0.000003 0.000003 0.000005 0.000005 0.000005 0.000005 0.000005 0.000005 0.000009 0.000009 0.000009 0.000009 0.000009 0.000009 0.000015 0.000015 0.000015 0.000015 0.000015 0.000015 0.000024 0.000024 0.000024 0.000024 0.000024 0.000024 0.000037 0.000037 0.000037 0.000037 0.000037 0.000038 0.000057 0.000057 0.000057 0.000057 0.000058 0.000061 0.000085 0.000085 0.000085 0.000085 0.000091 0.000100 0.000124 0.000124 0.000124 0.000126 0.000144 0.000173 0.000178 0.000178 0.000178 0.000182 0.000233 0.000324 0.000244 0.000244 0.000244 0.000254 0.000372 0.000685 0.000320 0.000320 0.000320 0.000336 0.000541 0.001160 0.002266 0.003985 0.006317 0.009766 0.014999 0.022999 0.035231 0.053874 0.082123 0.124604 0.187911 0.281274 0.417392 0.613397 0.891940 1.282349 1.821769 2.556214 3.541419 4.843430 6.538931 8.715413 11.471437 14.917358 19.176969 24.390439 30.718564 38.347696 47.493671 58.401767 71.338436 86.569614 104.320488 124.713026 147.680776 172.865233 199.503858 226.325334 251.471599 272.467323 286.255490 289.312690 277.847793 248.064692 196.410675 119.591352 13.835772 -127.679946 -321.441790 -609.070366 -1090.512072 -2085.484261 -3311.764054 166.737640 3079.665697 535.796543 -1508.674101 -3072.903327 -5391.838188 -5126.040440 2737.834999 176.106785 -6529.296878 -6560.401402 -5939.333125 14622.990154 6982.392109 5141.072696 9486.359480 10357.677580 10003.212127 10422.164540 17744.761141 7398.248618 15661.707463 18147.360310 14167.144759 19368.116769 18215.966512 11923.661727 8196.849216 8991.834729 12015.048905 15269.362980 15401.300726 16047.976530 17482.597139 17075.426785 18145.667051 19041.286080 23688.763585 20491.368716 22237.205360 22453.519543 23823.051489 21591.450832 21015.681160 20351.802070 17445.343874 18558.028519 24438.721159 23643.965679 22497.553291 22497.553291 22497.553291 0.000398 0.000398 0.000398 0.000420 0.000691 0.001460 0.002554 0.004154 0.006505 0.010032 0.015400 0.023609 0.036155 0.055259 0.084179 0.127618 0.192267 0.287482 0.426103 0.625423 0.908267 1.304131 1.850320 2.592974 3.587916 4.901236 6.609641 8.800652 11.572929 15.037062 19.317282 24.554407 30.910005 38.571088 47.753601 58.701752 71.678966 86.945439 104.717388 125.104607 148.026157 173.108789 199.578398 226.160370 251.008841 271.686745 285.217931 288.229963 277.200531 248.805875 200.330851 130.010773 37.002441 -79.596951 -223.621897 -407.511806 -659.092422 -976.985047 -1211.661229 91.124662 1057.394588 230.307704 -590.747437 -1202.783549 -1690.652851 -1280.069928 2289.634962 3157.719421 1887.002360 1576.468357 2446.619822 8225.029924 8161.817378 7564.072271 8253.217032 9194.366410 9712.625649 10030.201843 11731.447114 10422.345411 14133.545092 14956.294371 14300.628426 15793.533726 15570.614928 14170.352273 13252.497291 13747.383349 14632.502866 15839.319888 17092.857523 17824.979336 18463.904855 16899.263625 18779.794141 19522.080857 21481.710621 20664.286923 22676.854819 22416.719311 22957.121211 22839.019658 23097.047504 22208.562741 19192.531348 19626.041896 23714.295209 22792.872924 22345.497988 22345.497988 22345.497988 0.000445 0.000445 0.000445 0.000470 0.000768 0.001597 0.002711 0.004321 0.006718 0.010342 0.015869 0.024322 0.037234 0.056876 0.086575 0.131125 0.197331 0.294686 0.436197 0.639339 0.927132 1.329268 1.883226 2.635292 3.641389 4.967662 6.690845 8.898504 11.689420 15.174464 19.478368 24.742675 31.129803 38.827449 48.051585 59.045065 72.067719 87.373061 105.166972 125.545307 148.410576 173.372605 199.643670 225.944176 250.439271 270.729324 283.917900 286.780366 276.054366 248.866496 203.289454 138.981636 57.800614 -35.755575 -134.329307 -227.280937 -297.836463 -313.135707 -195.214067 84.447977 289.427529 279.086097 249.645869 430.144377 977.650742 1952.868859 3137.110423 3821.282861 4112.795082 4586.348276 5560.617506 6660.099667 7280.085278 7825.554056 8514.799321 9208.649676 9886.887610 10551.127561 11170.857249 11781.804016 12623.746291 13313.640437 13891.251708 14407.041471 14712.875718 14845.305859 15078.767970 15514.194105 16146.606507 16909.116979 17660.946175 18298.545148 18755.676903 19030.964293 19556.270013 20114.063549 20650.444277 21008.936739 21516.620682 21756.360611 21966.391709 22149.899328 22447.158439 22510.268031 22302.608251 22198.902895 22467.700120 22338.004546 22312.514291 22312.514291 22312.514291 0.000451 0.000451 0.000451 0.000477 0.000779 0.001615 0.002734 0.004349 0.006756 0.010398 0.015954 0.024452 0.037430 0.057169 0.087009 0.131759 0.198246 0.295988 0.438019 0.641849 0.930532 1.333794 1.889147 2.642902 3.651000 4.979596 6.705428 8.916073 11.710334 15.199133 19.507291 24.776482 31.169269 38.873468 48.105042 59.106593 72.137292 87.449441 105.247067 125.623525 148.478363 173.418368 199.653344 225.902686 250.333230 270.551443 283.673936 286.500148 275.809694 248.801135 203.671759 140.303023 60.972913 -28.986739 -120.528676 -199.768866 -245.472307 -226.066467 -106.921836 91.674373 246.148513 300.292269 380.336199 672.625502 1304.807180 2249.144770 3226.519204 3892.986198 4336.127212 4894.310118 5701.102879 6545.281939 7210.918067 7843.209696 8540.659453 9250.599411 9940.852529 10596.725048 11220.595204 11861.046717 12569.835142 13218.000171 13792.651530 14289.048252 14663.986369 14948.131147 15264.851590 15698.634832 16276.427154 16964.735772 17667.437002 18292.691516 18793.891758 19211.633474 19680.065435 20184.655926 20664.202190 21077.895206 21445.803744 21705.516527 21902.977591 22108.500800 22348.686770 22535.782259 22596.117580 22556.245049 22450.873197 22336.220948 22310.645368 22310.645368 22310.645368 0.000451 0.000451 0.000451 0.000477 0.000779 0.001615 0.002734 0.004349 0.006756 0.010398 0.015954 0.024452 0.037430 0.057169 0.087009 0.131759 0.198246 0.295988 0.438019 0.641849 0.930532 1.333794 1.889147 2.642902 3.651000 4.979596 6.705428 8.916073 11.710334 15.199133 19.507291 24.776482 31.169269 38.873468 48.105042 59.106593 72.137292 87.449441 105.247067 125.623525 148.478363 173.418368 199.653344 225.902686 250.333230 270.551443 283.673936 286.500148 275.809694 248.801135 203.671759 140.303023 60.972913 -28.986739 -120.528676 -199.768866 -245.472307 -226.066467 -106.921836 91.674373 246.148513 300.292269 380.336199 672.625502 1304.807180 2249.144770 3226.519204 3892.986198 4336.127212 4894.310118 5701.102879 6545.281939 7210.918067 7843.209696 8540.659453 9250.599411 9940.852529 10596.725048 11220.595204 11861.046717 12569.835142 13218.000171 13792.651530 14289.048252 14663.986369 14948.131147 15264.851590 15698.634832 16276.427154 16964.735772 17667.437002 18292.691516 18793.891758 19211.633474 19680.065435 20184.655926 20664.202190 21077.895206 21445.803744 21705.516527 21902.977591 22108.500800 22348.686770 22535.782259 22596.117580 22556.245049 22450.873197 22336.220948 22310.645368 22310.645368 22310.645368 0.000451 0.000451 0.000451 0.000477 0.000779 0.001615 0.002734 0.004349 0.006756 0.010398 0.015954 0.024452 0.037430 0.057169 0.087009 0.131759 0.198246 0.295988 0.438019 0.641849 0.930532 1.333794 1.889147 2.642902 3.651000 4.979596 6.705428 8.916073 11.710334 15.199133 19.507291 24.776482 31.169269 38.873468 48.105042 59.106593 72.137292 87.449441 105.247067 125.623525 148.478363 173.418368 199.653344 225.902686 250.333230 270.551443 283.673936 286.500148 275.809694 248.801135 203.671759 140.303023 60.972913 -28.986739 -120.528676 -199.768866 -245.472307 -226.066467 -106.921836 91.674373 246.148513 300.292269 380.336199 672.625502 1304.807180 2249.144770 3226.519204 3892.986198 4336.127212 4894.310118 5701.102879 6545.281939 7210.918067 7843.209696 8540.659453 9250.599411 9940.852529 10596.725048 11220.595204 11861.046717 12569.835142 13218.000171 13792.651530 14289.048252 14663.986369 14948.131147 15264.851590 15698.634832 16276.427154 16964.735772 17667.437002 18292.691516 18793.891758 19211.633474 19680.065435 20184.655926 20664.202190 21077.895206 21445.803744 21705.516527 21902.977591 22108.500800 22348.686770 22535.782259 22596.117580 22556.245049 22450.873197 22336.220948 22310.645368 22310.645368 22310.645368 -1397.325172 -1472.412463 -1578.294944 -1733.585122 -1974.557646 -2410.215718 -2248.039108 -424.322813 -84.763234 -1170.994894 -1472.219088 313.989279 958.509826 50.563087 -702.541439 -1442.342452 -403.134631 1264.453992 556.302884 -514.093358 -1619.636353 -2928.529901 -1366.565332 330.606763 3489.385359 3568.802965 1186.081455 -731.543960 -2632.850999 1287.191176 2463.320080 1705.037290 3659.363967 4721.267056 5446.340976 6411.469765 6725.339366 8034.323870 11892.292542 10194.325003 9217.968862 10194.086984 10169.561261 10504.018033 12583.816744 13233.947487 14551.713481 15877.468121 14422.994065 12859.392903 15450.320408 14624.662276 13128.012829 13030.341977 13030.341977 13030.341977 -1221.281139 -269.131641 5566.441487 17593.143302 19630.583684 11476.116248 15880.720944 13990.153466 14792.631512 16913.232567 14296.573839 17419.409576 15058.291108 13833.481759 13846.865270 14928.322586 15041.045689 13119.281154 15840.278741 14819.016219 13554.634837 14562.866701 14432.731628 12392.933588 11732.476462 12770.327162 15753.254525 12120.598084 11756.674478 14793.305669 12921.750904 13282.388630 13199.418780 11572.033640 13047.677057 14658.147595 14558.495050 14307.799109 16526.966012 14823.755963 14045.081965 14678.066906 13447.727861 13462.105228 14768.687076 13581.833008 10525.838471 13482.920464 13326.174533 14027.234035 14229.545728 16990.091802 13602.730761 13235.778345 13235.778345 13235.778345 154.342738 -2628.445829 16364.337826 6125.326767 18670.720839 14187.332569 15702.462113 15997.489012 12266.556811 12491.618856 12843.728624 12466.201910 17717.886855 16689.082881 14331.461877 15258.261116 14782.789218 15463.066978 16090.332503 14857.898159 14647.677703 12916.074274 12087.583349 13081.335516 12625.501671 12100.763303 15758.909685 15518.136070 14288.533126 12710.778022 11975.997988 10957.937527 11888.807524 12701.225746 11733.521008 10934.947671 12208.171626 13274.357207 11795.644608 13502.067765 13124.100288 11713.191672 10407.813025 13663.787972 10960.382238 11246.483471 13573.383995 14089.192201 11964.175637 15079.443289 13861.156479 17077.725643 13990.733850 13612.576358 13612.576358 13612.576358 571.067987 906.862509 17249.312831 16400.536335 17733.419011 16803.469512 17320.857427 18424.650588 14148.905333 16000.464999 17551.858940 17652.660083 16715.626185 16478.449821 12769.088367 16493.131110 17845.073390 16372.232042 18086.352239 17977.739953 16627.645445 16035.332510 13143.451419 13866.642447 16428.185733 14198.078934 17043.032074 17024.89