<VTKFile type="PolyData">
<PolyData>
<Piece NumberOfPoints="8632" NumberOfVerts="8632" NumberOfLines="0" NumberOfStrips="0" NumberOfPolys="0">
<PointData>
<DataArray type="Float64" Name="Pressure" format="ascii">
 -0.007328 -0.007328 -0.007328 -0.007733 -0.012372 -0.025026 -0.041201 -0.062905 -0.092253 -0.132095 -0.186265 -0.259792 -0.359186 -0.492802 -0.671292 -0.908117 -1.220150 -1.628356 -2.158544 -2.842191 -3.717318 -4.829400 -6.232286 -7.989093 -10.173035 -12.868148 -16.169861 -20.185386 -25.033874 -30.846327 -37.765263 -45.944135 -55.546551 -66.745347 -79.721588 -94.663580 -111.765963 -131.228946 -153.257700 -178.061856 -205.855015 -236.854082 -271.278204 -309.347045 -351.278167 -397.283292 -447.563190 -502.300664 -561.650010 -625.718445 -694.527626 -767.925457 -845.376235 -925.471713 -1004.860251 -1076.829465 -1130.930060 -1151.080820 -1106.485260 -969.936470 -785.904713 -632.746079 -498.119166 -340.173460 -200.021358 -153.816053 -177.971344 -189.883605 -137.470098 -63.213192 -45.466636 -57.409371 -16.733647 80.924532 152.874751 195.230874 276.981727 384.108230 434.409216 428.729195 443.996071 546.797846 717.551820 868.840439 985.267782 1140.934044 1414.334649 1800.457846 2214.095111 2625.897145 3090.096523 3665.111833 4358.272898 5130.040252 5913.493843 6661.644186 7393.385999 8122.339586 8835.354487 9520.927607 10156.169835 10723.592692 11231.379446 11720.886314 12233.224143 12768.846326 13292.938362 13643.370833 13709.408893 13709.408893 13709.408893 -0.007328 -0.007328 -0.007328 -0.007733 -0.012372 -0.025026 -0.041201 -0.062905 -0.092253 -0.132095 -0.186265 -0.259792 -0.359186 -0.492802 -0.671292 -0.908117 -1.220150 -1.628356 -2.158544 -2.842191 -3.717318 -4.829400 -6.232286 -7.989093 -10.173035 -12.868148 -16.169861 -20.185386 -25.033874 -30.846327 -37.765263 -45.944135 -55.546551 -66.745347 -79.721588 -94.663580 -111.765963 -131.228946 -153.257700 -178.061856 -205.855015 -236.854082 -271.278204 -309.347045 -351.278167 -397.283292 -447.563190 -502.300664 -561.650010 -625.718445 -694.527626 -767.925457 -845.376235 -925.471713 -1004.860251 -1076.829465 -1130.930060 -1151.080820 -1106.485260 -969.936470 -785.904713 -632.746079 -498.119166 -340.173460 -200.021358 -153.816053 -177.971344 -189.883605 -137.470098 -63.213192 -45.466636 -57.409371 -16.733647 80.924532 152.874751 195.230874 276.981727 384.108230 434.409216 428.729195 443.996071 546.797846 717.551820 868.840439 985.267782 1140.934044 1414.334649 1800.457846 2214.095111 2625.897145 3090.096523 3665.111833 4358.272898 5130.040252 5913.493843 6661.644186 7393.385999 8122.339586 8835.354487 9520.927607 10156.169835 10723.592692 11231.379446 11720.886314 12233.224143 12768.846326 13292.938362 13643.370833 13709.408893 13709.408893 13709.408893 -0.007328 -0.007328 -0.007328 -0.007733 -0.012372 -0.025026 -0.041201 -0.062905 -0.092253 -0.132095 -0.186265 -0.259792 -0.359186 -0.492802 -0.671292 -0.908117 -1.220150 -1.628356 -2.158544 -2.842191 -3.717318 -4.829400 -6.232286 -7.989093 -10.173035 -12.868148 -16.169861 -20.185386 -25.033874 -30.846327 -37.765263 -45.944135 -55.546551 -66.745347 -79.721588 -94.663580 -111.765963 -131.228946 -153.257700 -178.061856 -205.855015 -236.854082 -271.278204 -309.347045 -351.278167 -397.283292 -447.563190 -502.300664 -561.650010 -625.718445 -694.527626 -767.925457 -845.376235 -925.471713 -1004.860251 -1076.829465 -1130.930060 -1151.080820 -1106.485260 -969.936470 -785.904713 -632.746079 -498.119166 -340.173460 -200.021358 -153.816053 -177.971344 -189.883605 -137.470098 -63.213192 -45.466636 -57.409371 -16.733647 80.924532 152.874751 195.230874 276.981727 384.108230 434.409216 428.729195 443.996071 546.797846 717.551820 868.840439 985.267782 1140.934044 1414.334649 1800.457846 2214.095111 2625.897145 3090.096523 3665.111833 4358.272898 5130.040252 5913.493843 6661.644186 7393.385999 8122.339586 8835.354487 9520.927607 10156.169835 10723.592692 11231.379446 11720.886314 12233.224143 12768.846326 13292.938362 13643.370833 13709.408893 13709.408893 13709.408893 -0.007252 -0.007252 -0.007252 -0.007646 -0.012237 -0.024776 -0.040937 -0.062692 -0.092062 -0.131879 -0.185991 -0.259432 -0.358710 -0.492179 -0.670482 -0.907071 -1.218811 -1.626655 -2.156402 -2.839515 -3.714003 -4.825327 -6.227325 -7.983100 -10.165856 -12.859621 -16.159819 -20.173658 -25.020290 -30.830723 -37.747483 -45.924033 -55.523994 -66.720216 -79.693779 -94.633000 -111.732529 -131.192584 -153.218342 -178.019440 -205.809488 -236.805414 -271.226402 -309.292198 -351.220529 -397.223467 -447.502592 -502.242618 -561.602513 -625.701052 -694.588554 -768.183573 -846.119765 -927.366900 -1009.069434 -1084.876992 -1144.691535 -1173.721587 -1132.870903 -1001.768306 -776.135746 -621.082325 -507.059288 -338.000007 -160.260555 -129.689530 -182.283429 -213.885330 -147.713576 -41.914024 -34.952394 -77.960832 -40.611056 88.510895 161.872434 176.004463 262.039522 401.178681 450.964632 416.668408 404.996445 512.629148 717.059923 874.066658 962.588001 1086.318131 1357.225473 1772.218990 2189.248305 2569.456701 2998.259124 3557.815733 4251.347784 5036.608689 5840.581038 6576.409690 7295.846763 8031.332989 8749.687229 9449.122412 10088.734704 10638.789535 11104.541692 11556.745780 12066.472648 12637.357549 13219.361828 13619.777734 13694.584905 13694.584905 13694.584905 -0.006445 -0.006445 -0.006445 -0.006750 -0.010608 -0.021435 -0.037555 -0.060463 -0.090149 -0.129731 -0.183258 -0.255838 -0.353972 -0.485967 -0.662397 -0.896635 -1.205449 -1.609686 -2.135027 -2.812811 -3.680917 -4.784675 -6.177792 -7.923255 -10.094162 -12.774455 -16.059503 -20.056489 -24.884574 -30.674812 -37.569810 -45.723142 -55.298557 -66.469047 -79.415830 -94.327346 -111.398349 -130.829134 -152.824939 -177.595463 -205.354417 -236.318922 -270.708558 -308.743858 -350.644157 -396.624980 -446.895736 -501.659733 -561.121303 -625.511448 -695.159545 -770.677126 -853.403388 -946.286658 -1055.732624 -1176.645188 -1296.901066 -1434.065695 -1622.451114 -1526.767160 -675.642379 -486.308213 -760.145425 -390.897787 422.447316 218.571535 -248.031857 -627.743707 -361.798796 409.954149 161.790516 -398.410634 -516.875235 335.479210 403.881634 -174.060674 -59.980189 755.734138 724.604486 274.680012 -135.982164 -33.808054 829.170803 1038.631263 709.241382 373.830830 537.934755 1535.253231 1997.292705 1911.620997 1885.100741 2304.003654 3013.200113 3980.569519 5165.713307 5704.159101 6215.178226 7054.957743 7813.528707 8691.062590 9360.282797 9644.503776 9422.362482 9248.505212 9709.432324 10780.115253 12146.665563 13276.410495 13503.574559 13503.574559 13503.574559 -0.005371 -0.005371 -0.005371 -0.005599 -0.008273 -0.015654 -0.030436 -0.056991 -0.087774 -0.127244 -0.180160 -0.251787 -0.348635 -0.478968 -0.653285 -0.884866 -1.190371 -1.590527 -2.110880 -2.782629 -3.643502 -4.738680 -6.121724 -7.855482 -10.012933 -12.677922 -15.945753 -19.923580 -24.730574 -30.497844 -37.368088 -45.495005 -55.042496 -66.183713 -79.100033 -93.980041 -111.018606 -130.416114 -152.377868 -177.113641 -204.837259 -235.766088 -270.120215 -308.121228 -349.990702 -395.949118 -446.217369 -501.026336 -560.648025 -625.481410 -696.275258 -774.694288 -864.756820 -976.548540 -1136.866472 -1307.300653 -1481.771877 -1758.366286 -2251.698164 -1860.163485 -140.937515 -226.427495 -1258.338664 -648.429124 1167.428748 727.214543 -358.884590 -1417.828830 -848.448820 1259.828180 607.176679 -1110.506969 -1632.257269 981.086150 1157.356726 -1168.902883 -918.694959 1846.925881 1444.358543 100.755568 -1272.304194 -1326.982972 1491.109366 1721.673199 406.996613 -1007.058234 -1219.279099 1705.658175 2227.373222 967.345028 -195.590323 708.831823 1508.304249 1802.567888 5006.433867 5258.906836 4085.421130 6382.297486 6137.935373 7052.788113 8202.357473 8115.575547 6644.776919 4793.636713 5322.339457 7960.721650 10432.931486 12634.221111 13169.390255 13169.390255 13169.390255 -0.005230 -0.005230 -0.005230 -0.005448 -0.007968 -0.014761 -0.004338 -0.004338 -0.004338 -0.004476 -0.006059 -0.009598 -0.003109 -0.003109 -0.003109 -0.003169 -0.003803 -0.004878 -0.002156 -0.002156 -0.002156 -0.002178 -0.002398 -0.002755 -0.001464 -0.001464 -0.001464 -0.001471 -0.001537 -0.001649 -0.000980 -0.000980 -0.000980 -0.000982 -0.000996 -0.001025 -0.000649 -0.000649 -0.000649 -0.000649 -0.000647 -0.000650 -0.000426 -0.000426 -0.000426 -0.000425 -0.000420 -0.000416 -0.000277 -0.000277 -0.000277 -0.000277 -0.000272 -0.000267 -0.000179 -0.000179 -0.000179 -0.000179 -0.000175 -0.000171 -0.000115 -0.000115 -0.000115 -0.000115 -0.000112 -0.000109 -0.000074 -0.000074 -0.000074 -0.000073 -0.000072 -0.000069 -0.000047 -0.000047 -0.000047 -0.000047 -0.000045 -0.000044 -0.000029 -0.000029 -0.000029 -0.000029 -0.000029 -0.000028 -0.000018 -0.000018 -0.000018 -0.000018 -0.000018 -0.000017 -0.000011 -0.000011 -0.000011 -0.000011 -0.000011 -0.000011 -0.000007 -0.000007 -0.000007 -0.000007 -0.000007 -0.000007 -0.000004 -0.000004 -0.000004 -0.000004 -0.000004 -0.000004 -0.000003 -0.000003 -0.000003 -0.000003 -0.000003 -0.000002 -0.000002 -0.000002 -0.000002 -0.000002 -0.000002 -0.000001 -0.000001 -0.000001 -0.000001 -0.000001 -0.000001 -0.000001 -0.000001 -0.000001 -0.000001 -0.000001 -0.000001 -0.000001 -0.000000 -0.000000 -0.000000 -0.000000 -0.000000 -0.000000 -0.000000 -0.000000 -0.000000 -0.000000 -0.000000 -0.000000 -0.000000 -0.000000 -0.000000 -0.000000 -0.000000 -0.000000 -0.000000 -0.000000 -0.000000 -0.000000 -0.000000 -0.000000 -0.000000 -0.000000 -0.000000 -0.000000 -0.000000 -0.000000 -0.000000 -0.000000 -0.000000 -0.000000 -0.000000 -0.000000 -0.000000 -0.000000 -0.000000 -0.000000 -0.000000 -0.000000 -0.000000 -0.000000 -0.000000 -0.000000 -0.000000 -0.000000 -0.000000 -0.000000 -0.000000 -0.000000 -0.000000 -0.000000 -0.000000 -0.000000 -0.000000 -0.000000 -0.000000 -0.000000 -0.000000 -0.000000 -0.000000 -0.000000 -0.000000 -0.000000 -0.000000 -0.000000 -0.000000 -0.000000 -0.000000 -0.000000 0.000000 0.000000 0.000000 -0.000000 0.000000 -0.000000 0.000000 0.000000 0.000000 -0.000000 0.000000 0.000000 0.000000 0.000000 0.000000 -0.000000 0.000000 0.000000 0.000000 0.000000 0.000000 -0.000000 0.000000 0.000000 0.000000 0.000000 0.000000 0.000000 0.000000 0.000000 0.000000 0.000000 0.000000 -0.000000 -0.000000 0.000000 -0.000000 -0.000000 -0.000000 -0.000000 -0.000000 -0.000000 -0.000000 -0.000000 -0.000000 -0.000000 -0.000000 -0.000000 -0.000000 -0.000000 -0.000000 -0.000000 -0.000000 -0.000000 -0.000000 -0.000000 -0.000000 -0.000000 -0.000000 -0.000000 -0.000000 -0.000000 -0.000000 -0.000000 -0.000000 -0.000000 -0.000000 -0.000000 -0.000000 -0.000000 -0.000000 -0.000000 -0.000000 -0.000000 -0.000000 -0.000000 -0.000000 -0.000000 -0.000000 -0.000000 -0.000000 -0.000000 -0.000000 -0.000000 -0.000000 -0.000000 -0.000000 -0.000000 -0.000000 -0.000000 -0.000000 -0.000000 -0.000000 -0.000000 -0.000000 -0.000000 -0.000000 -0.000000 -0.000000 -0.000000 -0.000000 -0.000000 -0.000000 -0.000000 -0.000000 -0.000000 -0.000000 -0.000000 -0.000000 -0.000000 -0.000000 -0.000000 -0.000000 -0.000000 -0.000000 -0.000000 -0.000000 -0.000000 -0.000000 -0.000000 -0.000000 -0.000000 -0.000000 -0.000000 -0.000000 -0.000000 -0.000000 -0.000000 -0.000000 -0.000000 -0.000000 -0.000000 -0.000000 -0.000000 -0.000000 -0.000000 -0.000000 -0.000000 -0.000000 -0.000000 -0.000000 -0.000000 -0.000000 -0.000000 -0.000000 -0.000000 -0.000000 -0.000000 -0.000000 -0.000000 -0.000000 -0.000000 -0.000000 -0.000000 -0.000000 -0.000000 -0.000000 -0.000000 -0.000000 -0.000000 -0.000000 -0.000000 -0.000000 -0.000000 -0.000000 -0.000000 -0.000000 -0.000000 -0.000000 -0.000000 -0.000000 -0.000000 -0.000000 -0.000000 -0.000000 -0.000000 -0.000000 -0.000000 -0.000000 -0.000000 -0.000000 -0.000000 -0.000000 -0.000000 -0.000000 -0.000000 -0.000000 -0.000000 -0.000000 -0.000000 -0.000000 -0.000000 -0.000000 -0.000000 -0.000000 -0.000000 -0.000000 -0.000000 -0.000000 -0.000000 -0.000000 -0.000000 -0.000000 -0.000000 -0.000000 -0.000000 -0.000000 -0.000000 -0.000000 -0.000000 -0.000000 -0.000000 -0.000000 -0.000000 -0.000000 -0.000000 -0.000000 -0.000000 -0.000000 -0.000000 -0.000000 -0.000000 -0.000000 -0.000000 -0.000000 -0.000000 -0.000000 -0.000000 -0.000000 -0.000000 -0.000000 -0.000000 -0.000000 -0.000000 -0.000000 -0.000000 -0.000000 -0.000000 -0.000000 -0.000000 -0.000000 -0.000000 -0.000000 -0.000000 -0.000000 -0.000000 -0.000000 -0.000000 -0.000000 -0.000000 -0.000000 -0.000000 -0.000000 -0.000000 -0.000000 -0.000000 -0.000000 -0.000000 -0.000000 -0.000000 -0.000000 -0.000000 -0.000000 -0.000000 -0.000000 -0.000000 -0.000000 -0.000000 -0.000000 -0.000000 -0.000000 -0.000000 -0.000000 -0.000000 -0.000000 -0.000000 -0.000000 -0.000000 -0.000000 -0.000000 -0.000000 -0.000000 -0.000000 -0.000000 -0.000000 -0.000000 -0.000000 -0.000000 -0.000000 -0.000000 -0.000000 -0.000000 -0.000000 -0.000000 -0.000000 -0.000000 -0.000000 -0.000000 -0.000000 -0.000000 -0.000000 -0.000000 -0.000000 -0.000000 -0.000000 -0.000000 -0.000000 -0.000000 -0.000000 -0.000000 -0.000000 -0.000000 -0.000000 -0.000000 -0.000000 -0.000000 -0.000000 -0.000000 -0.000000 -0.000000 -0.000000 -0.000000 -0.000000 -0.000000 -0.000000 -0.000000 -0.000000 -0.000000 -0.000000 -0.000000 -0.000000 -0.000000 -0.000000 -0.000000 -0.000000 -0.000000 -0.000000 -0.000000 -0.000000 -0.000000 -0.000000 -0.000000 -0.000000 -0.000000 -0.000000 -0.000000 -0.000000 -0.000000 -0.000000 -0.000000 -0.000000 -0.000000 -0.000000 -0.000000 -0.000000 -0.000000 -0.000000 -0.000000 -0.000000 -0.000000 -0.000000 -0.000000 -0.000000 -0.000000 -0.000000 -0.000000 -0.000000 -0.000000 -0.000000 -0.000000 -0.000000 -0.000000 -0.000000 -0.000000 -0.000000 -0.000000 -0.000000 -0.000000 -0.000000 -0.000000 -0.000000 -0.000000 -0.000000 -0.000000 -0.000000 -0.000000 -0.000000 -0.000000 -0.000000 -0.000000 -0.000000 -0.000000 -0.000000 -0.000000 -0.000000 -0.000000 -0.000000 -0.000000 -0.000000 -0.000000 -0.000000 -0.000000 -0.000000 -0.000000 -0.000000 -0.000000 -0.000000 -0.000000 -0.000000 -0.000000 -0.000000 -0.000000 -0.000000 -0.000000 -0.000000 -0.000000 -0.000000 -0.000000 -0.000000 -0.000000 -0.000000 -0.000000 -0.000000 -0.000000 -0.000000 -0.000000 -0.000000 -0.000000 -0.000000 -0.000000 -0.000000 -0.000000 -0.000000 -0.000000 -0.000000 -0.000000 -0.000000 -0.000000 -0.000000 -0.000000 -0.000000 -0.000000 -0.000000 -0.000000 -0.000000 -0.000000 -0.000000 -0.000000 -0.000000 -0.000000 -0.000000 -0.000000 -0.000000 -0.000000 -0.000000 -0.000000 -0.000000 -0.000000 -0.000000 -0.000000 -0.000000 -0.000000 -0.000000 -0.000000 -0.000000 -0.000000 -0.000000 -0.000000 -0.000000 -0.000000 -0.000000 -0.000000 -0.000000 -0.000000 -0.000000 -0.000000 -0.000000 -0.000000 -0.000000 -0.000000 -0.000000 -0.000000 -0.000000 -0.000000 -0.000000 -0.000000 -0.000000 -0.000000 -0.000000 -0.000000 -0.000000 -0.000000 -0.000000 -0.000000 -0.000000 -0.000000 -0.000000 -0.000000 -0.000000 -0.000000 -0.000000 -0.000000 -0.000000 -0.000000 -0.000000 -0.000000 -0.000000 -0.000000 -0.000000 -0.000000 -0.000000 -0.000000 -0.000000 -0.000000 -0.000000 -0.000000 -0.000000 -0.000000 -0.000000 -0.000000 -0.000000 -0.000000 -0.000000 -0.000000 -0.000000 -0.000000 -0.000000 -0.000000 -0.000000 -0.000000 -0.000000 -0.000000 -0.000000 -0.000000 -0.000000 -0.000000 -0.000000 -0.000000 -0.000000 -0.000000 -0.000000 -0.000000 -0.000000 -0.000000 -0.000000 -0.000000 -0.000000 -0.000000 -0.000000 -0.000000 -0.000000 -0.000000 -0.000000 -0.000000 -0.000000 -0.000000 -0.000000 -0.000000 -0.000000 -0.000000 -0.000000 -0.000000 -0.000000 -0.000000 -0.000000 -0.000000 -0.000000 -0.000000 -0.000000 -0.000000 -0.000000 -0.000000 -0.000000 -0.000000 -0.000000 -0.000000 -0.000000 -0.000000 -0.000000 -0.000000 -0.000000 -0.000000 -0.000000 -0.000000 -0.000000 -0.000000 -0.000000 -0.000000 -0.000000 -0.000000 -0.000000 -0.000000 -0.000000 -0.000000 -0.000000 -0.000000 -0.000000 -0.000000 -0.000000 -0.000000 -0.000000 -0.000000 -0.000000 -0.000000 -0.000000 -0.000000 -0.000000 -0.000000 -0.000000 -0.000000 -0.000000 -0.000000 -0.000000 -0.000000 -0.000000 -0.000000 -0.000000 -0.000000 -0.000000 -0.000000 -0.000000 -0.000000 -0.000000 -0.000000 -0.000000 -0.000000 -0.000000 -0.000000 -0.000000 -0.000000 -0.000000 -0.000000 -0.000000 -0.000000 -0.000000 -0.000000 -0.000000 -0.000000 -0.000000 -0.000000 -0.000000 -0.000000 -0.000000 -0.000000 -0.000000 -0.000000 -0.000000 -0.000000 -0.000000 -0.000000 -0.000000 -0.000000 -0.000000 -0.000000 -0.000000 -0.000000 -0.000000 -0.000000 -0.000000 -0.000000 -0.000000 -0.000000 -0.000000 -0.000000 -0.000000 -0.000000 -0.000000 -0.000000 -0.000000 -0.000000 -0.000000 -0.000000 -0.000000 -0.000000 -0.000000 -0.000000 -0.000000 -0.000000 -0.000000 -0.000000 -0.000000 -0.000000 -0.000000 -0.000000 -0.000000 -0.000000 -0.000000 -0.000000 -0.000000 -0.000000 -0.000000 -0.000000 -0.000000 -0.000000 -0.000000 -0.000000 -0.000000 -0.000000 -0.000000 -0.000000 -0.000000 -0.000000 -0.000000 -0.000000 -0.000000 -0.000000 -0.000000 -0.000000 -0.000000 -0.000000 -0.000000 -0.000000 -0.000000 -0.000000 -0.000000 -0.000000 -0.000000 -0.000000 -0.000000 -0.000000 -0.000000 -0.000000 -0.000000 -0.000000 -0.000000 -0.000000 -0.000000 -0.000000 -0.000000 -0.000000 -0.000000 -0.000000 -0.000000 -0.000000 -0.000000 -0.000000 -0.000000 -0.000000 -0.000000 -0.000000 -0.000000 -0.000000 -0.000000 -0.000000 -0.000000 -0.000000 -0.000000 -0.000000 -0.000000 -0.000000 -0.000000 -0.000000 -0.000000 -0.000000 -0.000000 -0.000000 -0.000000 -0.000000 -0.000000 -0.000000 0.000000 -0.000000 -0.000000 -0.000000 -0.000000 -0.000000 -0.000000 -0.000000 -0.000000 -0.000000 -0.000000 -0.000000 -0.000000 -0.000000 -0.000000 -0.000000 -0.000000 -0.000000 -0.000000 -0.000000 -0.000000 -0.000000 -0.000000 -0.000000 -0.000000 -0.000000 -0.000000 -0.000000 -0.000000 -0.000000 -0.000000 -0.000000 -0.000000 -0.000000 -0.000000 -0.000000 -0.000000 -0.000000 -0.000000 -0.000000 -0.000000 -0.000000 -0.000000 -0.000000 -0.000000 -0.000000 -0.000000 -0.000000 -0.000000 -0.000000 -0.000000 -0.000000 -0.000000 -0.000000 -0.000000 -0.000000 -0.000000 -0.000000 -0.000000 -0.000000 -0.000000 -0.000000 -0.000000 -0.000000 -0.000000 -0.000000 -0.000000 -0.000000 -0.000000 -0.000000 -0.000000 -0.000000 -0.000000 -0.000000 -0.000000 -0.000000 -0.000000 -0.000000 -0.000000 -0.000000 -0.000000 -0.000000 -0.000000 -0.000000 -0.000000 -0.000000 -0.000000 -0.000000 -0.000000 -0.000000 -0.000000 -0.000000 -0.000000 -0.000000 -0.000000 -0.000000 -0.000000 -0.000000 -0.000000 -0.000000 -0.000000 -0.000000 -0.000000 -0.000000 -0.000000 -0.000000 -0.000000 -0.000000 -0.000000 -0.000000 -0.000000 -0.000000 -0.000000 -0.000000 -0.000000 -0.000000 -0.000000 -0.000000 -0.000000 -0.000000 -0.000000 -0.000000 -0.000000 -0.000000 -0.000000 -0.000000 -0.000000 -0.000000 -0.000000 -0.000000 -0.000000 -0.000000 -0.000000 -0.000000 -0.000000 -0.000000 -0.000000 -0.000000 -0.000000 -0.000000 -0.000000 -0.000000 -0.000000 -0.000000 -0.000000 -0.000000 -0.000000 -0.000000 -0.000000 -0.000000 -0.000000 -0.000000 -0.000000 -0.000000 -0.000000 -0.000000 -0.000000 -0.000000 -0.000000 -0.000000 -0.000000 -0.000000 -0.000000 -0.000000 -0.000000 -0.000000 -0.000000 -0.000000 -0.000000 -0.000000 -0.000000 -0.000000 -0.000000 -0.000000 -0.000000 -0.000000 -0.000000 -0.000000 -0.000000 -0.000000 -0.000000 -0.000000 -0.000000 -0.000000 -0.000000 -0.000000 -0.000000 -0.000000 -0.000000 -0.000000 -0.000000 -0.000000 -0.000000 -0.000000 -0.000000 -0.000000 -0.000000 -0.000000 -0.000000 -0.000000 -0.000000 -0.000000 -0.000000 -0.000000 -0.000000 -0.000000 -0.000000 -0.000000 -0.000000 -0.000000 -0.000000 -0.000000 -0.000000 -0.000000 -0.000000 -0.000000 -0.000000 -0.000000 -0.000000 -0.000000 -0.000000 -0.000000 -0.000000 -0.000000 -0.000000 -0.000000 -0.000000 -0.000000 -0.000000 -0.000000 -0.000000 -0.000000 -0.000000 -0.000000 -0.000000 -0.000000 -0.000000 -0.000000 -0.000000 -0.000000 -0.000000 -0.000000 -0.000000 -0.000000 -0.000000 -0.000000 -0.000000 -0.000000 -0.000001 -0.000001 -0.000002 -0.000002 -0.000004 -0.000006 -0.000010 -0.000015 -0.000023 -0.000035 -0.000053 -0.000080 -0.000119 -0.000175 -0.000256 -0.000372 -0.000534 -0.000760 -0.001070 -0.001490 -0.002052 -0.002790 -0.003743 -0.004946 -0.006425 -0.008183 -0.010177 -0.012286 -0.014263 -0.015655 -0.015706 -0.013202 -0.006268 0.007912 0.033473 0.076373 0.145040 0.251223 0.411060 0.646431 0.986634 1.470421 2.148475 3.086339 4.367851 6.099108 8.412945 11.473910 15.483636 20.686490 27.375257 35.896579 46.655785 60.120730 76.824385 97.366125 122.412130 152.695849 189.019902 232.260544 283.374089 343.400171 413.448571 494.644610 587.996933 694.153723 813.060500 943.693242 1084.466397 1236.023471 1411.394498 1668.826699 2218.148552 3674.415857 5183.200315 3918.786117 2834.975967 4395.430176 5850.164418 7584.351300 10018.573144 12131.164605 11862.697842 11901.105768 14834.091050 14194.714224 16013.831260 18586.606856 17962.123544 17396.906060 18361.003010 20434.612501 16675.854615 16053.372934 17622.373545 14632.177299 13764.442362 13764.442362 13764.442362 -0.000000 -0.000000 -0.000000 -0.000000 -0.000000 -0.000000 -0.000000 -0.000000 -0.000000 -0.000000 -0.000000 -0.000000 -0.000001 -0.000001 -0.000002 -0.000003 -0.000004 -0.000006 -0.000010 -0.000015 -0.000024 -0.000036 -0.000054 -0.000081 -0.000121 -0.000179 -0.000261 -0.000379 -0.000543 -0.000772 -0.001086 -0.001511 -0.002078 -0.002822 -0.003780 -0.004987 -0.006467 -0.008219 -0.010197 -0.012271 -0.014183 -0.015467 -0.015344 -0.012569 -0.005228 0.009550 0.035976 0.080101 0.150477 0.259010 0.422037 0.661685 1.007549 1.498746 2.186392 3.136533 4.433593 6.184329 8.522310 11.612878 15.658500 20.904382 27.644113 36.225043 47.053056 60.596365 77.388089 98.027591 123.181020 153.581995 190.033721 233.413539 284.679053 344.870640 415.097641 496.485488 590.053259 696.497549 815.904396 947.540502 1090.163125 1243.894023 1416.077450 1636.151566 1978.839878 2492.299752 2965.811923 3122.952204 3279.907874 3978.447832 5081.461695 6256.801209 7980.189853 9261.978369 9507.170424 9894.228185 11108.463794 11558.428007 13020.137404 14585.980779 14097.337414 13878.281621 14970.201480 17322.517228 15597.319962 14350.091193 15051.951154 13564.306892 13172.012205 13172.012205 13172.012205 -0.000000 -0.000000 -0.000000 -0.000000 -0.000000 -0.000000 -0.000000 -0.000000 -0.000000 -0.000000 -0.000000 -0.000000 -0.000001 -0.000001 -0.000002 -0.000003 -0.000004 -0.000007 -0.000010 -0.000016 -0.000024 -0.000037 -0.000056 -0.000084 -0.000124 -0.000183 -0.000267 -0.000387 -0.000554 -0.000786 -0.001105 -0.001535 -0.002108 -0.002858 -0.003822 -0.005034 -0.006514 -0.008259 -0.010217 -0.012250 -0.014086 -0.015243 -0.014915 -0.011825 -0.004010 0.011465 0.038895 0.084440 0.156796 0.268050 0.434766 0.679354 1.031754 1.531501 2.230203 3.194489 4.509450 6.282599 8.648345 11.772933 15.859783 21.155057 27.953250 36.602518 47.509373 61.142437 78.035004 98.786445 124.062911 154.598248 191.196344 234.735698 286.175086 346.554990 416.982547 498.579574 592.368774 699.083858 818.933690 951.449567 1095.703302 1251.354929 1421.020357 1613.783730 1845.780039 2127.218684 2441.927493 2775.351055 3181.438663 3733.749840 4428.525842 5231.533765 6094.305962 6879.971108 7506.031630 8085.635584 8696.827698 9317.400230 9998.294548 10629.124293 11110.781042 11618.912540 12255.224191 12954.014069 13198.458948 13088.720898 13063.843106 12862.495447 12826.461387 12826.461387 12826.461387 -0.000000 -0.000000 -0.000000 -0.000000 -0.000000 -0.000000 -0.000000 -0.000000 -0.000000 -0.000000 -0.000000 -0.000000 -0.000001 -0.000001 -0.000002 -0.000003 -0.000004 -0.000007 -0.000010 -0.000016 -0.000024 -0.000037 -0.000056 -0.000084 -0.000125 -0.000184 -0.000268 -0.000388 -0.000556 -0.000789 -0.001108 -0.001539 -0.002113 -0.002864 -0.003830 -0.005042 -0.006523 -0.008267 -0.010220 -0.012245 -0.014068 -0.015201 -0.014837 -0.011689 -0.003789 0.011813 0.039423 0.085225 0.157939 0.269683 0.437065 0.682543 1.036121 1.537407 2.238099 3.204930 4.523110 6.300289 8.671024 11.801725 15.895980 21.200120 28.008806 36.670334 47.591329 61.240487 78.151133 98.922642 124.221170 154.780606 191.404961 234.972931 286.443470 346.856998 417.320082 498.953514 592.779820 699.537591 819.454118 952.101965 1096.603290 1252.552325 1421.887987 1611.106840 1831.030080 2090.451473 2390.370947 2736.869175 3160.159096 3695.992561 4347.162663 5087.271001 5867.403401 6602.403794 7244.320922 7837.546299 8429.991638 9031.246890 9647.843150 10229.395787 10751.163184 11288.944831 11877.899452 12410.230153 12735.312813 12859.846150 12842.073482 12789.080840 12778.140110 12778.140110 12778.140110 -0.000000 -0.000000 -0.000000 -0.000000 -0.000000 -0.000000 -0.000000 -0.000000 -0.000000 -0.000000 -0.000000 -0.000000 -0.000001 -0.000001 -0.000002 -0.000003 -0.000004 -0.000007 -0.000010 -0.000016 -0.000024 -0.000037 -0.000056 -0.000084 -0.000125 -0.000184 -0.000268 -0.000388 -0.000556 -0.000789 -0.001108 -0.001539 -0.002113 -0.002864 -0.003830 -0.005042 -0.006523 -0.008267 -0.010220 -0.012245 -0.014068 -0.015201 -0.014837 -0.011689 -0.003789 0.011813 0.039423 0.085225 0.157939 0.269683 0.437065 0.682543 1.036121 1.537407 2.238099 3.204930 4.523110 6.300289 8.671024 11.801725 15.895980 21.200120 28.008806 36.670334 47.591329 61.240487 78.151133 98.922642 124.221170 154.780606 191.404961 234.972931 286.443470 346.856998 417.320082 498.953514 592.779820 699.537591 819.454118 952.101965 1096.603290 1252.552325 1421.887987 1611.106840 1831.030080 2090.451473 2390.370947 2736.869175 3160.159096 3695.992561 4347.162663 5087.271001 5867.403401 6602.403794 7244.320922 7837.546299 8429.991638 9031.246890 9647.843150 10229.395787 10751.163184 11288.944831 11877.899452 12410.230153 12735.312813 12859.846150 12842.073482 12789.080840 12778.140110 12778.140110 12778.140110 -0.000000 -0.000000 -0.000000 -0.000000 -0.000000 -0.000000 -0.000000 -0.000000 -0.000000 -0.000000 -0.000000 -0.000000 -0.000001 -0.000001 -0.000002 -0.000003 -0.000004 -0.000007 -0.000010 -0.000016 -0.000024 -0.000037 -0.000056 -0.000084 -0.000125 -0.000184 -0.000268 -0.000388 -0.000556 -0.000789 -0.001108 -0.001539 -0.002113 -0.002864 -0.003830 -0.005042 -0.006523 -0.008267 -0.010220 -0.012245 -0.014068 -0.015201 -0.014837 -0.011689 -0.003789 0.011813 0.039423 0.085225 0.157939 0.269683 0.437065 0.682543 1.036121 1.537407 2.238099 3.204930 4.523110 6.300289 8.671024 11.801725 15.895980 21.200120 28.008806 36.670334 47.591329 61.240487 78.151133 98.922642 124.221170 154.780606 191.404961 234.972931 286.443470 346.856998 417.320082 498.953514 592.779820 699.537591 819.454118 952.101965 1096.603290 1252.552325 1421.887987 1611.106840 1831.030080 2090.451473 2390.370947 2736.869175 3160.159096 3695.992561 4347.162663 5087.271001 5867.403401 6602.403794 7244.320922 7837.546299 8429.991638 9031.246890 9647.843150 10229.395787 10751.163184 11288.944831 11877.899452 12410.230153 12735.312813 12859.846150 12842.073482 12789.080840 12778.140110 12778.140110 12778.140110 -1351.585237 -1542.898015 -1872.356921 -2345.662699 -1437.603368 158.061012 -429.931831 -1404.059662 -282.165448 1322.768722 518.807429 -601.087013 -1668.440778 -442.735673 1485.764317 307.732316 -1544.793277 -1397.937312 1530.444398 776.583952 -1738.228384 -418.871431 2311.978685 1237.890174 -180.173213 -1747.756763 -1003.561506 2084.915940 1577.786631 122.685099 -1549.654946 -965.730552 2339.163985 2097.535644 368.207814 -757.073401 527.448537 1472.340702 1541.304397 6084.318500 4408.823225 4087.589541 6503.100465 5452.547530 7222.096481 7765.887883 7944.894496 5736.032224 4037.127572 5193.064122 8263.340797 10765.467532 12770.728980 13117.656901 13117.656901 13117.656901 -1827.983763 157.289407 -322.147327 5874.815434 10554.572064 10090.186715 5704.271052 2791.200807 8387.966943 6642.009023 4046.732234 7865.871597 1466.732014 8293.605014 4870.645358 5284.584508 7662.412244 6686.744975 5695.754372 8063.519521 7374.092688 5496.180477 6541.216887 6507.068844 8248.852320 4660.964217 5536.480403 6875.976658 5190.654508 7022.222967 6817.733990 4940.240725 8224.894087 7143.274607 6861.005253 5494.959591 7633.081341 7137.881065 7925.146764 6746.724319 6658.067504 6540.718578 7008.781055 5820.866528 8201.857528 5449.224011 8035.558627 7731.905990 8993.624821 6972.454764 8242.635302 9305.834345 12264.098901 12838.941039 12838.941039 12838.941039 139.646353 110.624297 2065.298264 1764.519997 4670.799984 5034.236558 5759.698572 9023.001875 6831.710416 9605.539049 9910.607088 4932.738513 8594.037192 11151.124351 7731.030668 9183.063105 3961.440618 11426.674115 7056.143271 6206.773058 6889.119950 7980.996515 7116.334162 6639.319000 5234.126129 7280.243801 6210.337481 8504.084567 5665.409098 6506.220433 6110.099553 6196.749098 6233.650444 6371.991548 6877.804419 7415.138151 7167.501443 6737.807675 7166.520552 8376.896219 6815.567965 5999.849020 4977.100764 5327.054953 5923.557612 8597.479098 7380.845806 6399.949381 7078.195612 9033.777895 6950.541847 10633.541599 12264.062115 12707.662366 12707.662366 12707.662366 -264.794989 -647.906830 4144.814450 3389.259564 4750.965932 2485.960394 6021.488447 3781.794759 10290.888468 6801.255147 4595.932686 8719.002549 5908.194633 5235.745684 12542.068393 5579.022780 5577.187510 6773.269554 4541.167725 5007.118959 9205.753808 3991.918860 5683.359185 6126.925656 7899.714390 6043.686509 7666.413732 7771.349313 9644.847790 6279.642346 7758.824582 7009.899238 5278.032948 7018.258207 7344.924396 6603.162436 6888.208083 7483.874676 6633.698531 5315.262318 5959.167330 6050.857702 7645.255493 9503.005138 7195.164316 10551.493652 9432.310625 8657.259389 8227.759006 7646.188508 6203.817600 15336.642827 13101.828338 12790.476193 12790.476193 12790.476193 778.108998 432.766801 -689.125376 1627.139052 1150.892053 5591.320416 3633.177925 4154.668576 4129.510902 3699.054472 3446.339750 5990.921808 4470.843431 9058.540244 3719.193998 6700.321935 4446.365295 3863.520633 3905.559179 3831.072391 3374.638944 5277.726845 6903.617952 4350.301019 6088.636415 5009.128516 4909.572206 6150.388285 8313.111376 7092.691729