<VTKFile type="PolyData">
<PolyData>
<Piece NumberOfPoints="8632" NumberOfVerts="8632" NumberOfLines="0" NumberOfStrips="0" NumberOfPolys="0">
<PointData>
<DataArray type="Float64" Name="Pressure" format="ascii">
 -2.069639 -2.069639 -2.069639 -2.101558 -2.460250 -3.390924 -4.457869 -5.694247 -7.105189 -8.704093 -10.515231 -12.569986 -14.904538 -17.558908 -20.576692 -24.005068 -27.894898 -32.300842 -37.281472 -42.899344 -49.221034 -56.317139 -64.262216 -73.134677 -83.016621 -93.993613 -106.154388 -119.590496 -134.395871 -150.666326 -168.498960 -187.991481 -209.241421 -232.345243 -257.397323 -284.488791 -313.706231 -345.130228 -378.833778 -414.880587 -453.323321 -494.201886 -537.541888 -583.353432 -631.630478 -682.350973 -735.477910 -790.961268 -848.740261 -908.744056 -970.886124 -1035.040306 -1100.970396 -1168.155630 -1235.422207 -1300.654981 -1361.232461 -1413.880306 -1452.247299 -1463.804724 -1426.072680 -1309.568225 -1126.817940 -960.003896 -837.414341 -702.740792 -536.757229 -416.827379 -382.800612 -388.136197 -367.490677 -289.841721 -209.724381 -198.891330 -226.281193 -204.976353 -57.444540 233.430284 585.910891 891.735612 1113.237952 1344.554344 1718.492633 2280.112682 2961.489183 3650.207222 4263.265132 4797.062055 5305.244675 5835.354144 6395.125616 6962.514451 7540.330751 8155.306848 8793.816516 9404.590271 9969.179721 10495.533857 10977.066064 11408.281665 11785.339705 12089.591746 12319.813541 12490.920938 12613.237549 12692.403825 12714.737762 12692.057820 12683.689492 12683.689492 12683.689492 -2.069639 -2.069639 -2.069639 -2.101558 -2.460250 -3.390924 -4.457869 -5.694247 -7.105189 -8.704093 -10.515231 -12.569986 -14.904538 -17.558908 -20.576692 -24.005068 -27.894898 -32.300842 -37.281472 -42.899344 -49.221034 -56.317139 -64.262216 -73.134677 -83.016621 -93.993613 -106.154388 -119.590496 -134.395871 -150.666326 -168.498960 -187.991481 -209.241421 -232.345243 -257.397323 -284.488791 -313.706231 -345.130228 -378.833778 -414.880587 -453.323321 -494.201886 -537.541888 -583.353432 -631.630478 -682.350973 -735.477910 -790.961268 -848.740261 -908.744056 -970.886124 -1035.040306 -1100.970396 -1168.155630 -1235.422207 -1300.654981 -1361.232461 -1413.880306 -1452.247299 -1463.804724 -1426.072680 -1309.568225 -1126.817940 -960.003896 -837.414341 -702.740792 -536.757229 -416.827379 -382.800612 -388.136197 -367.490677 -289.841721 -209.724381 -198.891330 -226.281193 -204.976353 -57.444540 233.430284 585.910891 891.735612 1113.237952 1344.554344 1718.492633 2280.112682 2961.489183 3650.207222 4263.265132 4797.062055 5305.244675 5835.354144 6395.125616 6962.514451 7540.330751 8155.306848 8793.816516 9404.590271 9969.179721 10495.533857 10977.066064 11408.281665 11785.339705 12089.591746 12319.813541 12490.920938 12613.237549 12692.403825 12714.737762 12692.057820 12683.689492 12683.689492 12683.689492 -2.069639 -2.069639 -2.069639 -2.101558 -2.460250 -3.390924 -4.457869 -5.694247 -7.105189 -8.704093 -10.515231 -12.569986 -14.904538 -17.558908 -20.576692 -24.005068 -27.894898 -32.300842 -37.281472 -42.899344 -49.221034 -56.317139 -64.262216 -73.134677 -83.016621 -93.993613 -106.154388 -119.590496 -134.395871 -150.666326 -168.498960 -187.991481 -209.241421 -232.345243 -257.397323 -284.488791 -313.706231 -345.130228 -378.833778 -414.880587 -453.323321 -494.201886 -537.541888 -583.353432 -631.630478 -682.350973 -735.477910 -790.961268 -848.740261 -908.744056 -970.886124 -1035.040306 -1100.970396 -1168.155630 -1235.422207 -1300.654981 -1361.232461 -1413.880306 -1452.247299 -1463.804724 -1426.072680 -1309.568225 -1126.817940 -960.003896 -837.414341 -702.740792 -536.757229 -416.827379 -382.800612 -388.136197 -367.490677 -289.841721 -209.724381 -198.891330 -226.281193 -204.976353 -57.444540 233.430284 585.910891 891.735612 1113.237952 1344.554344 1718.492633 2280.112682 2961.489183 3650.207222 4263.265132 4797.062055 5305.244675 5835.354144 6395.125616 6962.514451 7540.330751 8155.306848 8793.816516 9404.590271 9969.179721 10495.533857 10977.066064 11408.281665 11785.339705 12089.591746 12319.813541 12490.920938 12613.237549 12692.403825 12714.737762 12692.057820 12683.689492 12683.689492 12683.689492 -2.058577 -2.058577 -2.058577 -2.089856 -2.445723 -3.369845 -4.438774 -5.682212 -7.098292 -8.699370 -10.511113 -12.565775 -14.899925 -17.553743 -20.570885 -23.998553 -27.887612 -32.292730 -37.272475 -42.889403 -49.210093 -56.305141 -64.249105 -73.120400 -83.001128 -93.976858 -106.136329 -119.571097 -134.375104 -150.644169 -168.475403 -187.966523 -209.215074 -232.317533 -257.368291 -284.458497 -313.674755 -345.097674 -378.800272 -414.846282 -453.288394 -494.166542 -537.506354 -583.317963 -631.595368 -682.316606 -735.444897 -790.930831 -848.715225 -908.731372 -970.903191 -1035.130440 -1101.238157 -1168.833867 -1236.838698 -1303.026039 -1364.706125 -1419.521346 -1462.352753 -1482.207888 -1454.648333 -1322.352699 -1080.564301 -942.990067 -840.995302 -718.660700 -517.900634 -382.332092 -366.778454 -395.145481 -385.263611 -287.285361 -172.991630 -177.435640 -235.091102 -244.027871 -107.342721 211.306300 606.547493 934.312489 1123.885222 1300.138896 1639.772710 2205.862065 2908.252388 3623.476636 4247.670631 4770.937290 5266.411089 5792.776627 6361.999969 6928.233883 7493.656732 8117.648940 8793.062340 9427.708934 9997.896045 10531.102867 11014.342663 11442.655276 11825.423037 12126.012164 12347.325000 12517.841412 12638.408538 12723.704870 12753.514087 12720.592431 12709.479476 12709.479476 12709.479476 -1.938861 -1.938861 -1.938861 -1.963523 -2.269197 -3.089201 -4.192520 -5.554570 -7.028901 -8.652500 -10.470155 -12.523774 -14.853864 -17.502147 -20.512867 -23.933442 -27.814811 -32.211659 -37.182557 -42.790061 -49.100750 -56.185228 -64.118067 -72.977705 -82.846274 -93.809381 -105.955814 -119.377188 -134.167514 -150.422691 -168.239924 -187.717035 -208.951694 -232.040517 -257.078056 -284.155642 -313.360082 -344.772207 -378.465280 -414.503289 -452.939183 -493.813146 -537.151052 -582.963296 -631.244267 -681.972852 -735.114484 -790.625657 -848.462709 -908.598981 -971.060240 -1036.001938 -1103.878746 -1175.720895 -1253.533032 -1331.526464 -1403.282108 -1480.709011 -1571.845404 -1686.306723 -1801.338733 -1510.081991 -517.940478 -494.046705 -935.902442 -1059.982120 -293.044291 137.098269 -182.525137 -487.886283 -733.949727 -317.380546 396.569698 129.949768 -344.382866 -749.406909 -850.367909 -33.877822 887.768321 1611.585392 1346.236691 759.090612 647.343039 1275.239769 2206.179972 3248.786170 4075.188991 4494.879026 4819.830540 5289.503940 6016.519666 6581.884223 6880.178176 7547.801128 8758.627886 9727.332957 10327.846035 10956.893846 11466.446962 11834.341772 12313.062172 12533.997625 12586.813317 12816.376342 12931.092418 13054.253851 13234.303682 13080.576086 13007.224303 13007.224303 13007.224303 -1.769422 -1.769422 -1.769422 -1.788565 -2.009036 -2.593341 -3.654896 -5.334136 -6.930492 -8.592470 -10.421124 -12.475126 -14.801203 -17.443429 -20.446944 -23.859496 -27.732139 -32.119594 -37.080440 -42.677231 -48.976552 -56.049012 -63.969203 -72.815585 -82.670326 -93.619076 -105.750680 -119.156818 -133.931579 -150.170954 -167.972253 -187.433421 -208.652265 -231.725563 -256.748047 -283.811253 -313.002221 -344.402038 -378.084245 -414.113122 -452.541918 -493.411118 -536.746904 -582.560030 -630.845486 -681.583498 -734.742946 -790.289373 -848.202638 -908.516463 -971.410451 -1037.432190 -1108.050976 -1187.110628 -1285.005743 -1374.722569 -1450.505337 -1552.334399 -1699.935234 -1928.905848 -2336.213711 -2319.381245 -566.010221 -40.599712 -1094.485148 -1572.868037 56.506091 932.830113 81.407216 -639.424864 -1360.701929 -539.941382 1168.356215 599.929950 -487.464335 -1574.654580 -2546.598554 -1048.727427 1146.128485 3614.305569 2125.939596 25.471939 -1380.585806 228.701346 870.212975 2122.763592 4003.500715 4206.989439 4568.240930 4422.822955 5696.788274 6736.546258 5934.915624 5841.744633 8648.823719 10533.166844 10470.201564 11689.491708 12252.877037 11956.393874 13200.266952 13429.940617 12335.587953 14000.692098 13996.660593 13561.839832 14637.911854 13769.326892 13455.674385 13455.674385 13455.674385 -1.745596 -1.745596 -1.745596 -1.763957 -1.973524 -2.515171 -1.581448 -1.581448 -1.581448 -1.593417 -1.729394 -2.026316 -1.329202 -1.329202 -1.329202 -1.334511 -1.390954 -1.486740 -1.104097 -1.104097 -1.104097 -1.106098 -1.125892 -1.158630 -0.910648 -0.910648 -0.910648 -0.911202 -0.916501 -0.926236 -0.747401 -0.747401 -0.747401 -0.747408 -0.747367 -0.748743 -0.611058 -0.611058 -0.611058 -0.610883 -0.609089 -0.607609 -0.497916 -0.497916 -0.497916 -0.497698 -0.495510 -0.493247 -0.404460 -0.404460 -0.404460 -0.404251 -0.402156 -0.399868 -0.327557 -0.327557 -0.327557 -0.327372 -0.325523 -0.323463 -0.264490 -0.264490 -0.264490 -0.264332 -0.262756 -0.260986 -0.212937 -0.212937 -0.212937 -0.212805 -0.211484 -0.209995 -0.170928 -0.170928 -0.170928 -0.170818 -0.169722 -0.168484 -0.136802 -0.136802 -0.136802 -0.136711 -0.135807 -0.134785 -0.109166 -0.109166 -0.109166 -0.109092 -0.108349 -0.107510 -0.086856 -0.086856 -0.086856 -0.086795 -0.086188 -0.085501 -0.068900 -0.068900 -0.068900 -0.068850 -0.068355 -0.067796 -0.054494 -0.054494 -0.054494 -0.054453 -0.054051 -0.053597 -0.042971 -0.042971 -0.042971 -0.042939 -0.042613 -0.042246 -0.033784 -0.033784 -0.033784 -0.033758 -0.033495 -0.033199 -0.026482 -0.026482 -0.026482 -0.026460 -0.026249 -0.026011 -0.020695 -0.020695 -0.020695 -0.020678 -0.020509 -0.020318 -0.016125 -0.016125 -0.016125 -0.016111 -0.015976 -0.015824 -0.012526 -0.012526 -0.012526 -0.012515 -0.012408 -0.012286 -0.009701 -0.009701 -0.009701 -0.009692 -0.009607 -0.009511 -0.007490 -0.007490 -0.007490 -0.007484 -0.007416 -0.007340 -0.005766 -0.005766 -0.005766 -0.005761 -0.005708 -0.005648 -0.004425 -0.004425 -0.004425 -0.004421 -0.004379 -0.004332 -0.003386 -0.003386 -0.003386 -0.003383 -0.003350 -0.003313 -0.002583 -0.002583 -0.002583 -0.002580 -0.002555 -0.002526 -0.001964 -0.001964 -0.001964 -0.001962 -0.001943 -0.001920 -0.001489 -0.001489 -0.001489 -0.001488 -0.001472 -0.001455 -0.001126 -0.001126 -0.001126 -0.001125 -0.001113 -0.001099 -0.000848 -0.000848 -0.000848 -0.000848 -0.000838 -0.000828 -0.000637 -0.000637 -0.000637 -0.000637 -0.000630 -0.000622 -0.000477 -0.000477 -0.000477 -0.000477 -0.000472 -0.000465 -0.000357 -0.000357 -0.000357 -0.000356 -0.000352 -0.000347 -0.000265 -0.000265 -0.000265 -0.000265 -0.000262 -0.000258 -0.000197 -0.000197 -0.000197 -0.000197 -0.000194 -0.000192 -0.000146 -0.000146 -0.000146 -0.000146 -0.000144 -0.000142 -0.000108 -0.000108 -0.000108 -0.000107 -0.000106 -0.000105 -0.000079 -0.000079 -0.000079 -0.000079 -0.000078 -0.000077 -0.000058 -0.000058 -0.000058 -0.000058 -0.000057 -0.000056 -0.000042 -0.000042 -0.000042 -0.000042 -0.000042 -0.000041 -0.000031 -0.000031 -0.000031 -0.000031 -0.000030 -0.000030 -0.000022 -0.000022 -0.000022 -0.000022 -0.000022 -0.000022 -0.000016 -0.000016 -0.000016 -0.000016 -0.000016 -0.000016 -0.000012 -0.000012 -0.000012 -0.000012 -0.000012 -0.000011 -0.000008 -0.000008 -0.000008 -0.000008 -0.000008 -0.000008 -0.000006 -0.000006 -0.000006 -0.000006 -0.000006 -0.000006 -0.000004 -0.000004 -0.000004 -0.000004 -0.000004 -0.000004 -0.000003 -0.000003 -0.000003 -0.000003 -0.000003 -0.000003 -0.000002 -0.000002 -0.000002 -0.000002 -0.000002 -0.000002 -0.000002 -0.000002 -0.000002 -0.000002 -0.000002 -0.000002 -0.000001 -0.000001 -0.000001 -0.000001 -0.000001 -0.000001 -0.000001 -0.000001 -0.000001 -0.000001 -0.000001 -0.000001 -0.000001 -0.000001 -0.000001 -0.000001 -0.000001 -0.000001 -0.000000 -0.000000 -0.000000 -0.000000 -0.000000 -0.000000 -0.000000 -0.000000 -0.000000 -0.000000 -0.000000 -0.000000 -0.000000 -0.000000 -0.000000 -0.000000 -0.000000 -0.000000 -0.000000 -0.000000 -0.000000 -0.000000 -0.000000 -0.000000 -0.000000 -0.000000 -0.000000 -0.000000 -0.000000 -0.000000 -0.000000 -0.000000 -0.000000 -0.000000 -0.000000 -0.000000 -0.000000 -0.000000 -0.000000 -0.000000 -0.000000 -0.000000 -0.000000 -0.000000 -0.000000 -0.000000 -0.000000 -0.000000 -0.000000 -0.000000 -0.000000 -0.000000 -0.000000 -0.000000 -0.000000 -0.000000 -0.000000 -0.000000 -0.000000 -0.000000 -0.000000 -0.000000 -0.000000 -0.000000 -0.000000 -0.000000 -0.000000 -0.000000 -0.000000 -0.000000 -0.000000 -0.000000 -0.000000 -0.000000 -0.000000 -0.000000 -0.000000 -0.000000 -0.000000 -0.000000 -0.000000 -0.000000 -0.000000 -0.000000 -0.000000 -0.000000 -0.000000 -0.000000 -0.000000 -0.000000 -0.000000 -0.000000 -0.000000 -0.000000 -0.000000 -0.000000 -0.000000 -0.000000 -0.000000 -0.000000 -0.000000 -0.000000 -0.000000 -0.000000 -0.000000 -0.000000 -0.000000 -0.000000 -0.000000 -0.000000 -0.000000 -0.000000 -0.000000 -0.000000 -0.000000 -0.000000 -0.000000 -0.000000 -0.000000 -0.000000 -0.000000 -0.000000 -0.000000 -0.000000 -0.000000 -0.000000 -0.000000 -0.000000 -0.000000 -0.000000 -0.000000 -0.000000 -0.000000 -0.000000 -0.000000 -0.000000 -0.000000 -0.000000 -0.000000 -0.000000 -0.000000 -0.000000 -0.000000 -0.000000 -0.000000 -0.000000 -0.000000 -0.000000 -0.000000 -0.000000 -0.000000 -0.000000 -0.000000 -0.000000 -0.000000 -0.000000 -0.000000 -0.000000 -0.000000 -0.000000 -0.000000 -0.000000 -0.000000 -0.000000 -0.000000 -0.000000 -0.000000 -0.000000 -0.000000 -0.000000 -0.000000 -0.000000 -0.000000 -0.000000 -0.000000 -0.000000 -0.000000 -0.000000 -0.000000 -0.000000 -0.000000 -0.000000 -0.000000 -0.000000 -0.000000 -0.000000 -0.000000 -0.000000 -0.000000 -0.000000 -0.000000 -0.000000 -0.000000 -0.000000 -0.000000 -0.000000 -0.000000 -0.000000 -0.000000 -0.000000 -0.000000 -0.000000 -0.000000 -0.000000 -0.000000 -0.000000 -0.000000 -0.000000 -0.000000 -0.000000 -0.000000 -0.000000 -0.000000 -0.000000 -0.000000 -0.000000 -0.000000 -0.000000 -0.000000 -0.000000 -0.000000 -0.000000 -0.000000 -0.000000 -0.000000 -0.000000 -0.000000 -0.000000 -0.000000 -0.000000 -0.000000 -0.000000 -0.000000 -0.000000 -0.000000 -0.000000 -0.000000 -0.000000 -0.000000 -0.000000 -0.000000 -0.000000 -0.000000 -0.000000 -0.000000 -0.000000 -0.000000 -0.000000 -0.000000 -0.000000 -0.000000 -0.000000 -0.000000 -0.000000 -0.000000 -0.000000 -0.000000 -0.000000 -0.000000 -0.000000 -0.000000 -0.000000 -0.000000 -0.000000 -0.000000 -0.000000 -0.000000 -0.000000 -0.000000 -0.000000 -0.000000 -0.000000 -0.000000 -0.000000 -0.000000 -0.000000 -0.000000 -0.000000 -0.000000 -0.000000 -0.000000 -0.000000 -0.000000 -0.000000 -0.000000 -0.000000 -0.000000 -0.000000 -0.000000 -0.000000 -0.000000 -0.000000 -0.000000 -0.000000 -0.000000 -0.000000 -0.000000 -0.000000 -0.000000 -0.000000 -0.000000 -0.000000 -0.000000 -0.000000 -0.000000 -0.000000 -0.000000 -0.000000 -0.000000 -0.000000 -0.000000 -0.000000 -0.000000 -0.000000 -0.000000 -0.000000 -0.000000 -0.000000 -0.000000 -0.000000 -0.000000 -0.000000 -0.000000 -0.000000 -0.000000 -0.000000 -0.000000 -0.000000 -0.000000 -0.000000 -0.000000 -0.000000 -0.000000 -0.000000 -0.000000 -0.000000 -0.000000 -0.000000 -0.000000 -0.000000 -0.000000 -0.000000 -0.000000 -0.000000 -0.000000 -0.000000 -0.000000 -0.000000 -0.000000 -0.000000 -0.000000 -0.000000 -0.000000 -0.000000 -0.000000 -0.000000 -0.000000 -0.000000 -0.000000 -0.000000 -0.000000 -0.000000 -0.000000 -0.000000 -0.000000 -0.000000 -0.000000 -0.000000 -0.000000 -0.000000 -0.000000 -0.000000 -0.000000 -0.000000 -0.000000 -0.000000 -0.000000 -0.000000 -0.000000 -0.000000 -0.000000 -0.000000 -0.000000 -0.000000 -0.000000 -0.000000 -0.000000 -0.000000 -0.000000 -0.000000 -0.000000 -0.000000 -0.000000 -0.000000 -0.000000 -0.000000 -0.000000 -0.000000 -0.000000 -0.000000 -0.000000 -0.000000 -0.000000 -0.000000 -0.000000 -0.000000 -0.000000 -0.000000 -0.000000 -0.000000 -0.000000 -0.000000 -0.000000 -0.000000 -0.000000 -0.000000 -0.000000 -0.000000 -0.000000 -0.000000 -0.000000 -0.000000 -0.000000 -0.000000 -0.000000 -0.000000 -0.000000 -0.000000 -0.000000 -0.000000 -0.000000 -0.000000 -0.000000 -0.000000 -0.000000 -0.000000 -0.000000 -0.000000 -0.000000 -0.000000 -0.000000 -0.000000 -0.000000 -0.000000 -0.000000 -0.000000 -0.000000 -0.000000 -0.000000 -0.000000 -0.000000 -0.000000 -0.000000 -0.000000 -0.000000 -0.000000 -0.000000 -0.000000 -0.000000 -0.000000 -0.000000 -0.000000 -0.000000 -0.000000 -0.000000 -0.000000 -0.000000 -0.000000 -0.000000 -0.000000 -0.000000 -0.000000 -0.000000 -0.000000 -0.000000 -0.000000 -0.000000 -0.000000 -0.000000 -0.000000 -0.000000 -0.000000 -0.000000 -0.000000 -0.000000 -0.000000 -0.000000 -0.000000 -0.000000 -0.000000 -0.000000 -0.000000 -0.000000 -0.000000 -0.000000 -0.000000 -0.000000 -0.000000 -0.000000 -0.000000 -0.000000 -0.000000 -0.000000 -0.000000 -0.000000 -0.000000 -0.000000 -0.000000 -0.000000 -0.000000 -0.000000 -0.000000 -0.000000 -0.000000 -0.000000 -0.000000 -0.000000 -0.000000 -0.000000 -0.000000 -0.000000 -0.000000 -0.000000 -0.000000 -0.000000 -0.000000 -0.000000 -0.000000 -0.000000 -0.000000 -0.000000 -0.000000 -0.000000 -0.000000 -0.000000 -0.000000 -0.000000 -0.000000 -0.000000 -0.000000 -0.000000 -0.000000 -0.000000 -0.000000 -0.000000 -0.000000 -0.000000 -0.000000 -0.000000 -0.000000 -0.000000 -0.000000 -0.000000 -0.000000 -0.000000 -0.000000 -0.000000 -0.000000 -0.000000 -0.000000 -0.000000 -0.000000 -0.000000 -0.000000 -0.000000 -0.000000 -0.000000 -0.000000 -0.000000 -0.000000 -0.000000 -0.000000 -0.000000 -0.000000 -0.000000 -0.000000 -0.000000 -0.000000 -0.000000 -0.000000 -0.000000 -0.000000 -0.000000 -0.000000 -0.000000 -0.000000 -0.000000 -0.000000 -0.000000 -0.000000 -0.000000 -0.000000 -0.000000 -0.000000 -0.000000 -0.000000 -0.000000 -0.000000 -0.000000 -0.000000 -0.000000 -0.000000 -0.000000 -0.000000 -0.000000 -0.000000 -0.000000 -0.000000 -0.000000 -0.000000 -0.000000 -0.000000 -0.000000 -0.000000 -0.000000 -0.000000 -0.000000 -0.000000 -0.000000 -0.000000 -0.000000 -0.000000 -0.000000 -0.000000 -0.000000 -0.000000 -0.000000 -0.000000 -0.000000 -0.000000 -0.000000 -0.000000 -0.000000 -0.000000 -0.000000 -0.000000 -0.000000 -0.000000 -0.000000 -0.000000 -0.000000 -0.000000 -0.000000 -0.000000 -0.000000 -0.000000 -0.000000 -0.000000 -0.000000 -0.000000 -0.000000 -0.000000 -0.000000 -0.000000 -0.000000 -0.000000 -0.000000 -0.000000 -0.000000 -0.000000 -0.000000 -0.000000 -0.000000 -0.000000 -0.000000 -0.000000 -0.000000 -0.000000 -0.000000 -0.000000 -0.000000 -0.000000 -0.000000 -0.000000 -0.000000 -0.000000 -0.000000 -0.000000 -0.000000 -0.000000 -0.000000 -0.000000 -0.000000 -0.000000 -0.000000 -0.000000 -0.000000 -0.000000 -0.000000 -0.000000 -0.000000 -0.000000 -0.000000 -0.000000 -0.000000 -0.000000 -0.000000 -0.000000 -0.000000 -0.000000 -0.000000 -0.000000 -0.000000 -0.000000 -0.000000 -0.000000 -0.000000 -0.000000 -0.000000 -0.000000 -0.000000 -0.000000 -0.000000 -0.000000 -0.000000 -0.000000 -0.000000 -0.000000 -0.000000 -0.000000 -0.000000 -0.000000 -0.000000 -0.000000 -0.000000 -0.000000 -0.000000 -0.000000 -0.000000 -0.000000 -0.000000 -0.000000 -0.000000 -0.000000 -0.000000 -0.000000 -0.000000 -0.000000 -0.000000 -0.000000 -0.000000 -0.000000 -0.000000 -0.000000 -0.000000 -0.000000 -0.000000 -0.000000 -0.000000 -0.000000 -0.000000 -0.000000 -0.000000 -0.000000 -0.000000 -0.000000 -0.000001 -0.000001 -0.000001 -0.000001 -0.000001 -0.000001 -0.000001 -0.000001 -0.000001 -0.000001 -0.000001 -0.000001 -0.000001 -0.000001 -0.000001 -0.000001 -0.000001 -0.000001 -0.000001 -0.000001 -0.000001 -0.000001 -0.000001 -0.000001 -0.000000 -0.000000 -0.000000 -0.000000 -0.000001 -0.000001 -0.000000 -0.000000 -0.000000 -0.000000 -0.000000 -0.000000 0.000001 0.000001 0.000001 0.000001 0.000000 0.000000 0.000002 0.000002 0.000002 0.000002 0.000002 0.000001 0.000004 0.000004 0.000004 0.000004 0.000003 0.000003 0.000007 0.000007 0.000007 0.000007 0.000007 0.000006 0.000012 0.000012 0.000012 0.000012 0.000011 0.000011 0.000019 0.000019 0.000019 0.000019 0.000019 0.000019 0.000030 0.000030 0.000030 0.000030 0.000031 0.000033 0.000047 0.000047 0.000047 0.000047 0.000050 0.000056 0.000070 0.000070 0.000070 0.000071 0.000081 0.000098 0.000101 0.000101 0.000101 0.000104 0.000133 0.000184 0.000140 0.000140 0.000140 0.000146 0.000212 0.000388 0.000184 0.000184 0.000184 0.000193 0.000309 0.000653 0.001258 0.002180 0.003405 0.005188 0.007877 0.011989 0.018331 0.028141 0.043324 0.066759 0.102756 0.157649 0.240601 0.364608 0.547730 0.814523 1.197583 1.739110 2.492283 3.522235 4.906401 6.734081 9.105241 12.128904 15.921861 20.608904 26.326060 33.228184 41.501430 51.379295 63.158073 77.203977 93.940841 113.805508 137.159429 164.150970 194.533565 227.458589 261.274768 293.372204 320.101038 336.764616 337.629597 315.816952 262.868117 167.774742 15.329626 -216.489193 -561.841699 -1082.876182 -1907.477361 -3602.423384 -3515.444704 2429.615513 2152.829373 -3286.468766 -8726.892218 -15820.841366 -323.629330 15163.297383 560.042596 -5205.869210 4268.240399 4341.703983 5498.160535 6345.022519 5347.063861 12539.005783 9141.919762 10994.391431 13164.646439 19197.333621 12109.965661 18633.892381 10206.113750 15521.655864 20758.965708 19500.773637 14352.398851 15450.086847 19785.837588 14649.766060 18125.246962 17928.794188 20664.633120 20399.557778 16990.399445 21537.159324 22437.343316 22191.370573 23235.234880 23902.307397 24807.675963 28919.488966 27044.573240 26597.403541 27596.527948 25764.109945 30778.852659 26143.434672 18691.177065 22102.272375 23132.295090 23132.295090 23132.295090 0.000230 0.000230 0.000230 0.000242 0.000394 0.000820 0.001416 0.002270 0.003500 0.005324 0.008083 0.012309 0.018828 0.028912 0.044510 0.068567 0.105481 0.161703 0.246544 0.373183 0.559893 0.831459 1.220713 1.770064 2.532841 3.574233 4.971616 6.814113 9.201452 12.242464 16.053985 20.761318 26.501700 33.431996 41.741009 51.664931 63.501644 77.616189 94.426549 114.357431 137.751429 164.733111 195.032297 227.786550 261.356244 293.193256 319.800283 336.796503 339.065539 320.913584 276.139020 197.955958 78.829482 -89.707553 -317.765669 -619.775716 -1016.920886 -1449.268175 -1133.238594 971.158914 765.142022 -1186.762560 -2756.284963 -2457.973268 3384.228974 5592.032877 2397.412439 2004.427423 3867.921789 4345.672550 5688.566210 6600.331373 7387.242347 9072.631497 9375.872548 10941.262487 11427.917627 12059.060271 11862.503417 13816.290036 12225.661734 14107.259802 16236.706517 14941.477700 13991.867808 14668.200525 16378.066700 15286.076164 16689.369914 17728.827790 19313.246763 19949.203971 17989.378195 20940.509075 20297.506551 20186.496923 20983.006633 21190.496493 21650.841215 25183.049873 25329.609376 24907.737266 24558.394488 25985.212204 31583.397700 27712.514410 22209.513949 22449.387804 22525.530325 22525.530325 22525.530325 0.000257 0.000257 0.000257 0.000271 0.000437 0.000896 0.001500 0.002356 0.003609 0.005481 0.008324 0.012685 0.019412 0.029816 0.045898 0.070681 0.108661 0.166427 0.253459 0.383143 0.573995 0.851062 1.247440 1.805772 2.579553 3.634034 5.046521 6.905939 9.311755 12.372602 16.205389 20.936023 26.703116 33.665774 42.015699 51.991934 63.893857 78.084784 94.975624 114.976903 138.409451 165.370420 195.561978 228.103780 261.363795 292.850997 319.212897 336.367860 339.778905 324.855876 287.485821 224.773007 136.217691 25.659017 -95.876040 -206.634819 -268.341876 -206.135705 80.075498 478.216058 590.424042 469.390298 531.549127 1139.801798 2169.906508 2814.918878 3069.019938 3489.096811 4156.516374 4887.873874 5676.088596 6441.557170 7202.752779 8007.916593 8736.713126 9490.700751 10185.431085 10809.162565 11468.120411 12090.434701 12618.278783 13252.216679 13708.940631 13902.567385 14174.298676 14732.977920 15306.376212 15741.653132 16217.337132 16762.362051 17369.952127 17892.244873 18435.524571 19242.530616 19752.641423 20182.358323 20624.510988 21116.822108 21561.335701 22223.863633 22477.861095 22570.016296 22591.689040 23056.050080 23809.748825 23212.918544 22490.130516 22186.221650 22082.438857 22082.438857 22082.438857 0.000261 0.000261 0.000261 0.000275 0.000443 0.000905 0.001512 0.002371 0.003628 0.005510 0.008368 0.012753 0.019518 0.029980 0.046150 0.071064 0.109238 0.167282 0.254710 0.384943 0.576541 0.854598 1.252257 1.812201 2.587955 3.644783 5.059973 6.922421 9.331544 12.395945 16.232546 20.967366 26.739261 33.707733 42.064991 52.050564 63.964067 78.168468 95.073371 115.086731 138.525463 165.481787 195.652859 228.154918 261.356732 292.776177 319.083796 336.245478 339.815707 325.377519 289.144361 228.826678 145.017507 43.454059 -61.659349 -143.656491 -160.115598 -56.817881 190.346608 478.215082 630.413279 695.690473 915.112241 1445.646250 2152.347648 2716.170935 3141.781253 3633.712348 4249.432802 4939.282082 5670.259239 6400.766277 7133.496095 7880.229730 8605.799473 9321.788984 10009.558327 10685.365542 11372.442468 12010.591105 12580.619011 13110.735102 13513.487504 13812.993601 14179.840243 14678.952412 15192.152513 15647.346585 16105.221667 16603.229274 17155.139671 17724.192264 18348.445978 19050.674866 19641.886954 20131.685703 20590.382694 21050.309217 21523.562585 21942.694312 22175.298587 22287.526324 22388.245211 22521.789721 22608.058349 22506.612339 22272.530780 22062.145813 22019.798525 22019.798525 22019.798525 0.000261 0.000261 0.000261 0.000275 0.000443 0.000905 0.001512 0.002371 0.003628 0.005510 0.008368 0.012753 0.019518 0.029980 0.046150 0.071064 0.109238 0.167282 0.254710 0.384943 0.576541 0.854598 1.252257 1.812201 2.587955 3.644783 5.059973 6.922421 9.331544 12.395945 16.232546 20.967366 26.739261 33.707733 42.064991 52.050564 63.964067 78.168468 95.073371 115.086731 138.525463 165.481787 195.652859 228.154918 261.356732 292.776177 319.083796 336.245478 339.815707 325.377519 289.144361 228.826678 145.017507 43.454059 -61.659349 -143.656491 -160.115598 -56.817881 190.346608 478.215082 630.413279 695.690473 915.112241 1445.646250 2152.347648 2716.170935 3141.781253 3633.712348 4249.432802 4939.282082 5670.259239 6400.766277 7133.496095 7880.229730 8605.799473 9321.788984 10009.558327 10685.365542 11372.442468 12010.591105 12580.619011 13110.735102 13513.487504 13812.993601 14179.840243 14678.952412 15192.152513 15647.346585 16105.221667 16603.229274 17155.139671 17724.192264 18348.445978 19050.674866 19641.886954 20131.685703 20590.382694 21050.309217 21523.562585 21942.694312 22175.298587 22287.526324 22388.245211 22521.789721 22608.058349 22506.612339 22272.530780 22062.145813 22019.798525 22019.798525 22019.798525 0.000261 0.000261 0.000261 0.000275 0.000443 0.000905 0.001512 0.002371 0.003628 0.005510 0.008368 0.012753 0.019518 0.029980 0.046150 0.071064 0.109238 0.167282 0.254710 0.384943 0.576541 0.854598 1.252257 1.812201 2.587955 3.644783 5.059973 6.922421 9.331544 12.395945 16.232546 20.967366 26.739261 33.707733 42.064991 52.050564 63.964067 78.168468 95.073371 115.086731 138.525463 165.481787 195.652859 228.154918 261.356732 292.776177 319.083796 336.245478 339.815707 325.377519 289.144361 228.826678 145.017507 43.454059 -61.659349 -143.656491 -160.115598 -56.817881 190.346608 478.215082 630.413279 695.690473 915.112241 1445.646250 2152.347648 2716.170935 3141.781253 3633.712348 4249.432802 4939.282082 5670.259239 6400.766277 7133.496095 7880.229730 8605.799473 9321.788984 10009.558327 10685.365542 11372.442468 12010.591105 12580.619011 13110.735102 13513.487504 13812.993601 14179.840243 14678.952412 15192.152513 15647.346585 16105.221667 16603.229274 17155.139671 17724.192264 18348.445978 19050.674866 19641.886954 20131.685703 20590.382694 21050.309217 21523.562585 21942.694312 22175.298587 22287.526324 22388.245211 22521.789721 22608.058349 22506.612339 22272.530780 22062.145813 22019.798525 22019.798525 22019.798525 -1393.869299 -1472.021082 -1583.746242 -1748.984938 -2006.456819 -2501.349755 -2277.517556 -437.303282 -243.200672 -1314.914263 -1406.934182 478.216540 847.808477 -72.532094 -818.858416 -1460.478993 -157.069564 1288.573071 388.554274 -705.519177 -2021.669237 -2887.865080 -1020.537791 1814.926821 4181.571867 1735.933874 -699.353447 -1939.282989 127.813652 482.321082 2238.909130 4390.214189 4320.440760 4536.068484 4254.583173 6201.904717 6801.952877 5530.569936 5593.900623 9507.029251 10626.059847 10700.412832 11932.424430 12388.555030 11857.295473 13755.627054 12840.433133 12506.767985 14604.511567 14152.117640 13893.616976 15075.816208 13734.535940 13515.874147 13515.874147 13515.874147 234.741670 -405.702739 3662.427137 13983.571133 10690.321514 13423.977692 15814.694062 10941.372185 14151.495076 15749.750685 15931.683546 11697.795758 13975.993500 14088.627579 13838.512663 14739.596483 13042.366296 12141.510652 14215.889361 15219.715891 14292.301059 13229.226165 11735.107556 14188.549715 11804.729429 12701.917940 14195.200797 12086.825836 12410.495420 13588.095081 12707.197484 13577.537759 13788.793854 13044.052590 12803.294219 12260.894783 13958.480731 13843.084589 14984.089525 15365.467661 12894.171524 16132.534649 14502.741766 13405.583518 13928.430359 12080.526116 12597.115630 15083.123961 12721.929149 13941.668889 16806.939068 17922.205509 14598.254288 13848.296627 13848.296627 13848.296627 180.350078 -2443.535233 13461.696790 6598.938608 15472.611452 14145.011823 16084.715522 16284.043210 11639.964891 15716.687831 13436.778732 14982.628476 16493.305870 14379.074687 14533.480770 14673.275804 12638.446394 15661.431195 13891.413204 16576.522142 14539.758754 13739.222930 11513.166046 12659.748461 14139.033502 14754.074220 15009.272123 14618.479435 13242.640256 12626.888185 11408.320951 12268.171751 13560.323014 13042.125698 13322.758650 11877.594961 14264.733437 13697.323093 11694.708952 13465.365291 12445.302059 14292.667117 10896.747529 14021.055846 10620.982721 11099.016820 12259.369512 14865.380843 11600.504006 15863.737290 13858.454358 18318.641702 14797.739238 14144.586830 14144.586830 14144.586830 726.138554 4271.219804 17585.780899 16177.417628 15708.033180 14249.749854 15392.730493 16246.637035 11535.886954 12719.738878 17341.314329 8964.350141 15159.859310 14572.705470 17021.042940 15424.099590 14265.705661 15976.703102 15951.784115 15461.622689 10701.327563 16280.287330 11952.263937 17535.060229 14292.722216 13829.903927 13303.883871