<VTKFile type="PolyData">
<PolyData>
<Piece NumberOfPoints="8632" NumberOfVerts="8632" NumberOfLines="0" NumberOfStrips="0" NumberOfPolys="0">
<PointData>
<DataArray type="Float64" Name="Pressure" format="ascii">
 -0.151161 -0.151161 -0.151161 -0.155772 -0.207976 -0.345933 -0.510605 -0.712550 -0.959326 -1.260950 -1.630562 -2.084210 -2.640880 -3.322742 -4.155522 -5.168923 -6.397082 -7.879030 -9.659157 -11.787666 -14.321014 -17.322322 -20.861749 -25.016822 -29.872703 -35.522400 -42.066887 -49.615144 -58.284096 -68.198438 -79.490341 -92.299009 -106.770085 -123.054876 -141.309367 -161.693010 -184.367235 -209.493660 -237.231969 -267.737406 -301.157893 -337.630739 -377.278982 -420.207392 -466.498212 -516.206709 -569.356526 -625.934607 -685.884851 -749.098038 -815.391400 -884.460499 -955.759374 -1028.210744 -1099.565673 -1165.656873 -1220.372538 -1254.599156 -1252.770706 -1190.197182 -1048.389402 -868.521876 -725.321822 -604.607630 -454.499681 -309.547808 -246.083479 -248.153800 -243.745815 -182.349312 -97.468941 -73.451511 -105.174875 -114.346837 -56.314622 12.904479 29.139454 36.202071 100.753028 194.247087 230.731418 209.858084 208.561526 295.023649 452.652493 590.790353 683.597164 798.327461 1023.229333 1386.873740 1813.621898 2211.623200 2575.458759 2957.495027 3405.429358 3929.720765 4515.923856 5157.344888 5840.449455 6528.338543 7193.177108 7825.733858 8418.338322 8958.074082 9442.281716 9881.257493 10290.514600 10569.484533 10623.294884 10623.294884 10623.294884 -0.151161 -0.151161 -0.151161 -0.155772 -0.207976 -0.345933 -0.510605 -0.712550 -0.959326 -1.260950 -1.630562 -2.084210 -2.640880 -3.322742 -4.155522 -5.168923 -6.397082 -7.879030 -9.659157 -11.787666 -14.321014 -17.322322 -20.861749 -25.016822 -29.872703 -35.522400 -42.066887 -49.615144 -58.284096 -68.198438 -79.490341 -92.299009 -106.770085 -123.054876 -141.309367 -161.693010 -184.367235 -209.493660 -237.231969 -267.737406 -301.157893 -337.630739 -377.278982 -420.207392 -466.498212 -516.206709 -569.356526 -625.934607 -685.884851 -749.098038 -815.391400 -884.460499 -955.759374 -1028.210744 -1099.565673 -1165.656873 -1220.372538 -1254.599156 -1252.770706 -1190.197182 -1048.389402 -868.521876 -725.321822 -604.607630 -454.499681 -309.547808 -246.083479 -248.153800 -243.745815 -182.349312 -97.468941 -73.451511 -105.174875 -114.346837 -56.314622 12.904479 29.139454 36.202071 100.753028 194.247087 230.731418 209.858084 208.561526 295.023649 452.652493 590.790353 683.597164 798.327461 1023.229333 1386.873740 1813.621898 2211.623200 2575.458759 2957.495027 3405.429358 3929.720765 4515.923856 5157.344888 5840.449455 6528.338543 7193.177108 7825.733858 8418.338322 8958.074082 9442.281716 9881.257493 10290.514600 10569.484533 10623.294884 10623.294884 10623.294884 -0.151161 -0.151161 -0.151161 -0.155772 -0.207976 -0.345933 -0.510605 -0.712550 -0.959326 -1.260950 -1.630562 -2.084210 -2.640880 -3.322742 -4.155522 -5.168923 -6.397082 -7.879030 -9.659157 -11.787666 -14.321014 -17.322322 -20.861749 -25.016822 -29.872703 -35.522400 -42.066887 -49.615144 -58.284096 -68.198438 -79.490341 -92.299009 -106.770085 -123.054876 -141.309367 -161.693010 -184.367235 -209.493660 -237.231969 -267.737406 -301.157893 -337.630739 -377.278982 -420.207392 -466.498212 -516.206709 -569.356526 -625.934607 -685.884851 -749.098038 -815.391400 -884.460499 -955.759374 -1028.210744 -1099.565673 -1165.656873 -1220.372538 -1254.599156 -1252.770706 -1190.197182 -1048.389402 -868.521876 -725.321822 -604.607630 -454.499681 -309.547808 -246.083479 -248.153800 -243.745815 -182.349312 -97.468941 -73.451511 -105.174875 -114.346837 -56.314622 12.904479 29.139454 36.202071 100.753028 194.247087 230.731418 209.858084 208.561526 295.023649 452.652493 590.790353 683.597164 798.327461 1023.229333 1386.873740 1813.621898 2211.623200 2575.458759 2957.495027 3405.429358 3929.720765 4515.923856 5157.344888 5840.449455 6528.338543 7193.177108 7825.733858 8418.338322 8958.074082 9442.281716 9881.257493 10290.514600 10569.484533 10623.294884 10623.294884 10623.294884 -0.149987 -0.149987 -0.149987 -0.154495 -0.206215 -0.343072 -0.507835 -0.710628 -0.957990 -1.259770 -1.629296 -2.082733 -2.639112 -3.320621 -4.152985 -5.165907 -6.393517 -7.874839 -9.654258 -11.781970 -14.314428 -17.314745 -20.853076 -25.006944 -29.861510 -35.509777 -42.052720 -49.599319 -58.266502 -68.178968 -79.468891 -92.275486 -106.744406 -123.026970 -141.279181 -161.660510 -184.332411 -209.456534 -237.192595 -267.695881 -301.114361 -337.585400 -377.232104 -420.159332 -466.449463 -516.158014 -569.309150 -625.891041 -685.850568 -749.085891 -815.432618 -884.631705 -956.245810 -1029.436535 -1102.233173 -1170.587360 -1228.553462 -1268.694907 -1277.756701 -1225.735543 -1050.916505 -846.023018 -725.412423 -622.201317 -463.089956 -280.031210 -226.667479 -252.127039 -265.708823 -194.381975 -73.309764 -53.569738 -113.222451 -140.062963 -61.918212 31.901817 31.720622 11.901506 86.027985 213.769265 251.140829 202.503800 174.565318 265.249442 458.959664 607.841270 676.252731 757.658358 967.398493 1358.960303 1822.492507 2224.499003 2574.545047 2945.460432 3394.738531 3925.138990 4503.516956 5134.735789 5823.408249 6518.716428 7186.683820 7818.400188 8413.655353 8957.377861 9441.862040 9875.923728 10283.921510 10566.485500 10620.756593 10620.756593 10620.756593 -0.137419 -0.137419 -0.137419 -0.140940 -0.184931 -0.304771 -0.472072 -0.690331 -0.944568 -1.248033 -1.616688 -2.067993 -2.621463 -3.299436 -4.127655 -5.135786 -6.357906 -7.832978 -9.605323 -11.725075 -14.248626 -17.239039 -20.766420 -24.908251 -29.749664 -35.383642 -41.911152 -49.441180 -58.090676 -67.984377 -79.254516 -92.040386 -106.487744 -122.748042 -140.977449 -161.335636 -183.984304 -209.085396 -236.798976 -267.280739 -300.679131 -337.132077 -376.763361 -419.678725 -465.961890 -515.670791 -568.834713 -625.453719 -685.503616 -748.954280 -815.820251 -886.288490 -961.021954 -1041.732475 -1132.293821 -1227.510224 -1318.822886 -1423.952435 -1555.870430 -1653.053522 -1090.405128 -403.625671 -632.641609 -965.089813 -597.247020 190.686327 55.292191 -307.121754 -630.132955 -445.170643 362.135817 275.139240 -227.330763 -602.159827 -170.450586 463.765029 86.193785 -386.503040 -215.947985 591.094886 572.301284 116.260044 -300.160546 -233.576708 636.152122 916.671501 617.938339 234.388226 175.475881 976.754959 2037.771343 2431.563138 2566.389844 2788.377426 3279.826298 3919.159514 4344.022971 4757.402931 5523.050736 6347.966269 7077.284501 7707.779179 8371.295986 9021.740837 9566.180013 9898.895970 10232.572323 10528.152940 10587.322351 10587.322351 10587.322351 -0.120132 -0.120132 -0.120132 -0.122820 -0.153945 -0.237536 -0.394798 -0.656602 -0.926702 -1.233847 -1.602092 -2.051186 -2.601436 -3.275429 -4.098956 -5.101658 -6.317550 -7.785529 -9.549843 -11.660556 -14.173993 -17.153155 -20.668095 -24.796249 -29.622713 -35.240450 -41.750416 -49.261605 -57.890990 -67.763351 -79.010989 -91.773284 -106.196111 -122.431073 -140.634524 -160.966367 -183.588578 -208.663435 -236.351397 -266.808627 -300.184119 -336.616454 -376.230226 -419.132296 -465.408171 -515.119202 -568.302146 -624.974719 -685.155967 -748.923320 -816.560839 -888.935717 -968.453474 -1061.536826 -1185.722993 -1309.787290 -1428.130020 -1608.420935 -1907.012277 -2402.691602 -1676.523583 -116.316575 -512.819052 -1519.303705 -808.773546 877.254459 480.203845 -385.412158 -1280.390420 -975.561506 1065.649115 861.978777 -447.975180 -1604.351751 -430.052263 1494.301501 330.556348 -1447.019443 -1098.851805 1740.732608 1396.209306 13.155420 -1337.567805 -1577.252117 1363.381229 1870.006834 575.191836 -544.733348 -1752.938337 194.582020 3090.294985 2868.680816 2565.746127 2420.177284 2946.945949 4287.756964 4172.742402 3463.102267 4882.609429 5938.039654 7024.800800 7323.208303 7990.173304 9178.144415 10244.860267 10047.331897 10101.122657 10460.603430 10519.237562 10519.237562 10519.237562 -0.117789 -0.117789 -0.117789 -0.120355 -0.149815 -0.227057 -0.102287 -0.102287 -0.102287 -0.103940 -0.122787 -0.164217 -0.079674 -0.079674 -0.079674 -0.080404 -0.088129 -0.101224 -0.060783 -0.060783 -0.060783 -0.061057 -0.063763 -0.068208 -0.045774 -0.045774 -0.045774 -0.045855 -0.046635 -0.048007 -0.034163 -0.034163 -0.034163 -0.034174 -0.034270 -0.034561 -0.025324 -0.025324 -0.025324 -0.025312 -0.025194 -0.025131 -0.018664 -0.018664 -0.018664 -0.018648 -0.018485 -0.018330 -0.013684 -0.013684 -0.013684 -0.013669 -0.013519 -0.013360 -0.009983 -0.009983 -0.009983 -0.009971 -0.009848 -0.009713 -0.007248 -0.007248 -0.007248 -0.007239 -0.007143 -0.007037 -0.005238 -0.005238 -0.005238 -0.005231 -0.005158 -0.005077 -0.003767 -0.003767 -0.003767 -0.003762 -0.003708 -0.003647 -0.002697 -0.002697 -0.002697 -0.002693 -0.002653 -0.002608 -0.001922 -0.001922 -0.001922 -0.001919 -0.001890 -0.001856 -0.001363 -0.001363 -0.001363 -0.001361 -0.001340 -0.001315 -0.000963 -0.000963 -0.000963 -0.000961 -0.000945 -0.000928 -0.000676 -0.000676 -0.000676 -0.000675 -0.000664 -0.000651 -0.000473 -0.000473 -0.000473 -0.000472 -0.000464 -0.000455 -0.000329 -0.000329 -0.000329 -0.000329 -0.000323 -0.000317 -0.000228 -0.000228 -0.000228 -0.000228 -0.000224 -0.000219 -0.000158 -0.000158 -0.000158 -0.000157 -0.000154 -0.000151 -0.000108 -0.000108 -0.000108 -0.000108 -0.000106 -0.000104 -0.000074 -0.000074 -0.000074 -0.000074 -0.000072 -0.000071 -0.000050 -0.000050 -0.000050 -0.000050 -0.000049 -0.000048 -0.000034 -0.000034 -0.000034 -0.000034 -0.000033 -0.000033 -0.000023 -0.000023 -0.000023 -0.000023 -0.000022 -0.000022 -0.000015 -0.000015 -0.000015 -0.000015 -0.000015 -0.000015 -0.000010 -0.000010 -0.000010 -0.000010 -0.000010 -0.000010 -0.000007 -0.000007 -0.000007 -0.000007 -0.000007 -0.000007 -0.000005 -0.000005 -0.000005 -0.000005 -0.000004 -0.000004 -0.000003 -0.000003 -0.000003 -0.000003 -0.000003 -0.000003 -0.000002 -0.000002 -0.000002 -0.000002 -0.000002 -0.000002 -0.000001 -0.000001 -0.000001 -0.000001 -0.000001 -0.000001 -0.000001 -0.000001 -0.000001 -0.000001 -0.000001 -0.000001 -0.000001 -0.000001 -0.000001 -0.000001 -0.000001 -0.000001 -0.000000 -0.000000 -0.000000 -0.000000 -0.000000 -0.000000 -0.000000 -0.000000 -0.000000 -0.000000 -0.000000 -0.000000 -0.000000 -0.000000 -0.000000 -0.000000 -0.000000 -0.000000 -0.000000 -0.000000 -0.000000 -0.000000 -0.000000 -0.000000 -0.000000 -0.000000 -0.000000 -0.000000 -0.000000 -0.000000 -0.000000 -0.000000 -0.000000 -0.000000 -0.000000 -0.000000 -0.000000 -0.000000 -0.000000 -0.000000 -0.000000 -0.000000 -0.000000 -0.000000 -0.000000 -0.000000 -0.000000 -0.000000 -0.000000 -0.000000 -0.000000 -0.000000 -0.000000 -0.000000 -0.000000 -0.000000 -0.000000 -0.000000 -0.000000 -0.000000 -0.000000 -0.000000 -0.000000 -0.000000 -0.000000 -0.000000 -0.000000 -0.000000 -0.000000 -0.000000 -0.000000 -0.000000 -0.000000 -0.000000 -0.000000 -0.000000 -0.000000 -0.000000 -0.000000 -0.000000 -0.000000 -0.000000 -0.000000 -0.000000 -0.000000 -0.000000 -0.000000 -0.000000 -0.000000 -0.000000 -0.000000 -0.000000 -0.000000 -0.000000 -0.000000 -0.000000 -0.000000 -0.000000 -0.000000 -0.000000 -0.000000 -0.000000 -0.000000 -0.000000 -0.000000 -0.000000 -0.000000 -0.000000 -0.000000 -0.000000 -0.000000 -0.000000 -0.000000 -0.000000 -0.000000 -0.000000 -0.000000 -0.000000 -0.000000 -0.000000 -0.000000 -0.000000 -0.000000 -0.000000 -0.000000 -0.000000 -0.000000 -0.000000 -0.000000 -0.000000 -0.000000 -0.000000 -0.000000 -0.000000 -0.000000 -0.000000 -0.000000 -0.000000 -0.000000 -0.000000 -0.000000 -0.000000 -0.000000 -0.000000 -0.000000 -0.000000 -0.000000 -0.000000 -0.000000 -0.000000 -0.000000 -0.000000 -0.000000 -0.000000 -0.000000 -0.000000 -0.000000 -0.000000 -0.000000 -0.000000 -0.000000 -0.000000 -0.000000 -0.000000 -0.000000 -0.000000 -0.000000 -0.000000 -0.000000 -0.000000 -0.000000 -0.000000 -0.000000 -0.000000 -0.000000 -0.000000 -0.000000 -0.000000 -0.000000 -0.000000 -0.000000 -0.000000 -0.000000 -0.000000 -0.000000 -0.000000 -0.000000 -0.000000 -0.000000 -0.000000 -0.000000 -0.000000 -0.000000 -0.000000 -0.000000 -0.000000 -0.000000 -0.000000 -0.000000 -0.000000 -0.000000 -0.000000 -0.000000 -0.000000 -0.000000 -0.000000 -0.000000 -0.000000 -0.000000 -0.000000 -0.000000 -0.000000 -0.000000 -0.000000 -0.000000 -0.000000 -0.000000 -0.000000 -0.000000 -0.000000 -0.000000 -0.000000 -0.000000 -0.000000 -0.000000 -0.000000 -0.000000 -0.000000 -0.000000 -0.000000 -0.000000 -0.000000 -0.000000 -0.000000 -0.000000 -0.000000 -0.000000 -0.000000 -0.000000 -0.000000 -0.000000 -0.000000 -0.000000 -0.000000 -0.000000 -0.000000 -0.000000 -0.000000 -0.000000 -0.000000 -0.000000 -0.000000 -0.000000 -0.000000 -0.000000 -0.000000 -0.000000 -0.000000 -0.000000 -0.000000 -0.000000 -0.000000 -0.000000 -0.000000 -0.000000 -0.000000 -0.000000 -0.000000 -0.000000 -0.000000 -0.000000 -0.000000 -0.000000 -0.000000 -0.000000 -0.000000 -0.000000 -0.000000 -0.000000 -0.000000 -0.000000 -0.000000 -0.000000 -0.000000 -0.000000 -0.000000 -0.000000 -0.000000 -0.000000 -0.000000 -0.000000 -0.000000 -0.000000 -0.000000 -0.000000 -0.000000 -0.000000 -0.000000 -0.000000 -0.000000 -0.000000 -0.000000 -0.000000 -0.000000 -0.000000 -0.000000 -0.000000 -0.000000 -0.000000 -0.000000 -0.000000 -0.000000 -0.000000 -0.000000 -0.000000 -0.000000 -0.000000 -0.000000 -0.000000 -0.000000 -0.000000 -0.000000 -0.000000 -0.000000 -0.000000 -0.000000 -0.000000 -0.000000 -0.000000 -0.000000 -0.000000 -0.000000 -0.000000 -0.000000 -0.000000 -0.000000 -0.000000 -0.000000 -0.000000 -0.000000 -0.000000 -0.000000 -0.000000 -0.000000 -0.000000 -0.000000 -0.000000 -0.000000 -0.000000 -0.000000 -0.000000 -0.000000 -0.000000 -0.000000 -0.000000 -0.000000 -0.000000 -0.000000 -0.000000 -0.000000 -0.000000 -0.000000 -0.000000 -0.000000 -0.000000 -0.000000 -0.000000 -0.000000 -0.000000 -0.000000 -0.000000 -0.000000 -0.000000 -0.000000 -0.000000 -0.000000 -0.000000 -0.000000 -0.000000 -0.000000 -0.000000 -0.000000 -0.000000 -0.000000 -0.000000 -0.000000 -0.000000 -0.000000 -0.000000 -0.000000 -0.000000 -0.000000 -0.000000 -0.000000 -0.000000 -0.000000 -0.000000 -0.000000 -0.000000 -0.000000 -0.000000 -0.000000 -0.000000 -0.000000 -0.000000 -0.000000 -0.000000 -0.000000 -0.000000 -0.000000 -0.000000 -0.000000 -0.000000 -0.000000 -0.000000 -0.000000 -0.000000 -0.000000 -0.000000 -0.000000 -0.000000 -0.000000 -0.000000 -0.000000 -0.000000 -0.000000 -0.000000 -0.000000 -0.000000 -0.000000 -0.000000 -0.000000 -0.000000 -0.000000 -0.000000 -0.000000 -0.000000 -0.000000 -0.000000 -0.000000 -0.000000 -0.000000 -0.000000 -0.000000 -0.000000 -0.000000 -0.000000 -0.000000 -0.000000 -0.000000 -0.000000 -0.000000 -0.000000 -0.000000 -0.000000 -0.000000 -0.000000 -0.000000 -0.000000 -0.000000 -0.000000 -0.000000 -0.000000 -0.000000 -0.000000 -0.000000 -0.000000 -0.000000 -0.000000 -0.000000 -0.000000 -0.000000 -0.000000 -0.000000 -0.000000 -0.000000 -0.000000 -0.000000 -0.000000 -0.000000 -0.000000 -0.000000 -0.000000 -0.000000 -0.000000 -0.000000 -0.000000 -0.000000 -0.000000 -0.000000 -0.000000 -0.000000 -0.000000 -0.000000 -0.000000 -0.000000 -0.000000 -0.000000 -0.000000 -0.000000 -0.000000 -0.000000 -0.000000 -0.000000 -0.000000 -0.000000 -0.000000 -0.000000 -0.000000 -0.000000 -0.000000 -0.000000 -0.000000 -0.000000 -0.000000 -0.000000 -0.000000 -0.000000 -0.000000 -0.000000 -0.000000 -0.000000 -0.000000 -0.000000 -0.000000 -0.000000 -0.000000 -0.000000 -0.000000 -0.000000 -0.000000 -0.000000 -0.000000 -0.000000 -0.000000 -0.000000 -0.000000 -0.000000 -0.000000 -0.000000 -0.000000 -0.000000 -0.000000 -0.000000 -0.000000 -0.000000 -0.000000 -0.000000 -0.000000 -0.000000 -0.000000 -0.000000 -0.000000 -0.000000 -0.000000 -0.000000 -0.000000 -0.000000 -0.000000 -0.000000 -0.000000 -0.000000 -0.000000 -0.000000 -0.000000 -0.000000 -0.000000 -0.000000 -0.000000 -0.000000 -0.000000 -0.000000 -0.000000 -0.000000 -0.000000 -0.000000 -0.000000 -0.000000 -0.000000 -0.000000 -0.000000 -0.000000 -0.000000 -0.000000 -0.000000 -0.000000 -0.000000 -0.000000 -0.000000 -0.000000 -0.000000 -0.000000 -0.000000 -0.000000 -0.000000 -0.000000 -0.000000 -0.000000 -0.000000 -0.000000 -0.000000 -0.000000 -0.000000 -0.000000 -0.000000 -0.000000 -0.000000 -0.000000 -0.000000 -0.000000 -0.000000 -0.000000 -0.000000 -0.000000 -0.000000 -0.000000 -0.000000 -0.000000 -0.000000 -0.000000 -0.000000 -0.000000 -0.000000 -0.000000 -0.000000 -0.000000 -0.000000 -0.000000 -0.000000 -0.000000 -0.000000 -0.000000 -0.000000 -0.000000 -0.000000 -0.000000 -0.000000 -0.000000 -0.000000 -0.000000 -0.000000 -0.000000 -0.000000 -0.000000 -0.000000 -0.000000 -0.000000 -0.000000 -0.000000 -0.000000 -0.000000 -0.000000 -0.000000 -0.000000 -0.000000 -0.000000 -0.000000 -0.000000 -0.000000 -0.000000 -0.000000 -0.000000 -0.000000 -0.000000 -0.000000 -0.000000 -0.000000 -0.000000 -0.000000 -0.000000 -0.000000 -0.000000 -0.000000 -0.000000 -0.000000 -0.000000 -0.000000 -0.000000 -0.000000 -0.000000 -0.000000 -0.000000 -0.000000 -0.000000 -0.000000 -0.000000 -0.000000 -0.000000 -0.000000 -0.000000 -0.000000 -0.000000 -0.000000 -0.000000 -0.000000 -0.000000 -0.000000 -0.000000 -0.000000 -0.000000 -0.000000 -0.000000 -0.000000 -0.000000 -0.000000 -0.000000 -0.000000 -0.000000 -0.000000 -0.000000 -0.000000 -0.000000 -0.000000 -0.000000 -0.000000 -0.000000 -0.000000 -0.000000 -0.000000 -0.000000 -0.000000 -0.000000 -0.000000 -0.000000 -0.000000 -0.000000 -0.000000 -0.000000 -0.000000 -0.000000 -0.000000 -0.000000 -0.000000 -0.000000 -0.000000 -0.000000 -0.000000 -0.000000 -0.000000 -0.000000 -0.000000 -0.000000 -0.000000 -0.000000 -0.000000 -0.000000 -0.000000 -0.000000 0.000000 -0.000000 -0.000000 -0.000000 -0.000000 -0.000000 -0.000000 -0.000000 -0.000000 -0.000000 -0.000000 -0.000000 -0.000000 -0.000000 -0.000000 -0.000000 -0.000000 -0.000000 -0.000000 -0.000000 -0.000000 -0.000000 -0.000000 -0.000000 -0.000000 -0.000000 -0.000000 -0.000000 -0.000000 -0.000000 -0.000000 -0.000000 -0.000000 -0.000000 -0.000000 -0.000000 -0.000000 -0.000000 -0.000000 -0.000000 -0.000000 -0.000000 -0.000000 -0.000000 -0.000000 -0.000000 -0.000000 -0.000000 -0.000000 -0.000000 -0.000000 -0.000000 -0.000000 -0.000000 -0.000000 -0.000000 -0.000000 -0.000000 -0.000000 -0.000000 -0.000000 -0.000000 -0.000000 -0.000000 -0.000000 -0.000000 -0.000000 -0.000000 -0.000000 -0.000000 -0.000000 -0.000000 -0.000000 -0.000000 -0.000000 -0.000000 -0.000000 -0.000000 -0.000000 -0.000000 -0.000000 -0.000000 -0.000000 -0.000000 -0.000000 -0.000000 -0.000000 -0.000000 -0.000000 -0.000000 -0.000000 -0.000000 -0.000000 -0.000000 -0.000000 -0.000000 -0.000000 -0.000000 -0.000000 -0.000000 -0.000000 -0.000000 -0.000000 -0.000000 -0.000000 -0.000000 -0.000000 -0.000000 -0.000000 -0.000000 -0.000000 -0.000000 -0.000000 -0.000000 -0.000000 -0.000000 -0.000000 -0.000000 -0.000000 -0.000000 -0.000000 -0.000000 -0.000000 -0.000000 -0.000000 -0.000000 -0.000000 -0.000000 -0.000000 -0.000000 -0.000000 -0.000000 -0.000000 -0.000000 -0.000000 -0.000000 -0.000000 -0.000000 -0.000000 -0.000000 -0.000000 -0.000000 -0.000000 -0.000000 -0.000000 -0.000000 -0.000000 -0.000000 -0.000000 -0.000000 -0.000000 -0.000000 -0.000000 -0.000000 -0.000000 -0.000000 -0.000000 -0.000000 -0.000000 -0.000000 -0.000000 -0.000000 -0.000000 -0.000000 -0.000000 -0.000000 -0.000000 -0.000000 -0.000000 -0.000000 -0.000000 -0.000000 -0.000000 -0.000000 -0.000000 -0.000000 -0.000000 -0.000000 -0.000000 -0.000000 -0.000000 -0.000000 -0.000000 -0.000000 -0.000000 -0.000000 -0.000000 -0.000000 -0.000000 -0.000000 -0.000000 -0.000000 -0.000000 -0.000000 -0.000000 -0.000000 -0.000000 -0.000000 -0.000000 -0.000000 -0.000000 -0.000000 -0.000000 -0.000000 -0.000000 -0.000000 -0.000000 -0.000000 -0.000000 -0.000000 -0.000000 -0.000000 -0.000000 -0.000000 -0.000000 -0.000000 -0.000000 -0.000000 -0.000000 -0.000000 -0.000000 -0.000000 -0.000000 -0.000000 -0.000001 -0.000001 -0.000001 -0.000001 -0.000001 -0.000001 -0.000001 -0.000001 -0.000001 -0.000001 -0.000001 -0.000002 -0.000001 -0.000001 -0.000001 -0.000001 -0.000001 -0.000003 -0.000005 -0.000009 -0.000014 -0.000019 -0.000027 -0.000037 -0.000051 -0.000069 -0.000093 -0.000122 -0.000160 -0.000205 -0.000259 -0.000319 -0.000383 -0.000443 -0.000487 -0.000492 -0.000422 -0.000222 0.000192 0.000947 0.002228 0.004300 0.007542 0.012488 0.019877 0.030728 0.046432 0.068864 0.100537 0.144786 0.206007 0.289943 0.404042 0.557891 0.763743 1.037137 1.397647 1.869748 2.483835 3.277384 4.296292 5.596375 7.245053 9.323215 11.927259 15.171311 19.189610 24.139046 30.201852 37.588430 46.540322 57.333341 70.280943 85.737977 104.105103 125.834389 151.436922 181.493725 216.671858 257.748257 305.644783 361.479648 426.645283 502.947780 593.432419 723.108640 1308.938216 10092.129445 89654.088884 153814.109302 45554.013224 15525.459616 14771.320560 13476.283613 15329.487172 15755.200012 17310.310624 16206.368840 16653.282893 15059.143610 16299.599435 18080.468877 14837.628183 17848.731047 21223.426314 21690.398357 22255.509875 22420.977309 22827.084373 23523.789020 23176.924377 24379.360501 24179.781821 23901.632376 26038.228282 24524.496340 23274.478722 22283.906885 19234.339383 18130.679851 18144.168186 18144.168186 18144.168186 -0.000001 -0.000001 -0.000001 -0.000001 -0.000002 -0.000004 -0.000006 -0.000009 -0.000014 -0.000020 -0.000027 -0.000038 -0.000052 -0.000070 -0.000094 -0.000124 -0.000161 -0.000206 -0.000260 -0.000320 -0.000383 -0.000441 -0.000482 -0.000481 -0.000404 -0.000192 0.000241 0.001023 0.002342 0.004469 0.007789 0.012842 0.020379 0.031433 0.047411 0.070209 0.102369 0.147260 0.209320 0.294345 0.409846 0.565489 0.773617 1.049878 1.413976 1.890534 2.510119 3.310405 4.337507 5.647492 7.308053 9.400380 12.021198 15.284982 19.326345 24.302571 30.396306 37.818385 46.810800 57.649851 70.649526 86.165297 104.598604 126.402573 152.089804 182.243542 217.534099 258.743052 306.798567 362.826737 428.227921 504.803571 595.190254 710.215625 988.578589 2587.339155 11659.161077 19335.026086 9095.707689 5378.059363 5970.766417 6863.045468 7826.206116 8495.427684 9341.291570 9838.711018 10551.616249 10817.870566 11983.211026 12714.915897 11237.169714 13288.884594 15112.005229 15625.888175 16122.401115 16662.305009 16648.398728 17182.327222 17891.453358 19562.430818 19679.559156 21041.631687 24453.469696 23006.204420 22032.937253 23227.334097 19603.431335 16848.172474 16566.341001 16566.341001 16566.341001 -0.000001 -0.000001 -0.000001 -0.000001 -0.000002 -0.000004 -0.000006 -0.000010 -0.000014 -0.000020 -0.000028 -0.000039 -0.000053 -0.000071 -0.000095 -0.000125 -0.000162 -0.000208 -0.000261 -0.000320 -0.000382 -0.000438 -0.000475 -0.000469 -0.000382 -0.000156 0.000298 0.001111 0.002475 0.004666 0.008075 0.013253 0.020963 0.032251 0.048544 0.071767 0.104489 0.150121 0.213150 0.299432 0.416550 0.574260 0.785010 1.064574 1.432802 1.914489 2.540399 3.348430 4.384953 5.706316 7.380529 9.489124 12.129201 15.415636 19.483467 24.490431 30.619646 38.082442 47.121332 58.013171 71.072565 86.655707 105.164951 127.054661 152.839210 183.104446 218.524492 259.886369 308.125721 364.378308 430.055447 506.961910 597.523497 705.852964 848.205751 1096.151001 1560.591598 2032.298221 2251.087653 2630.901552 3290.676727 4005.630527 4687.512144 5321.658217 5916.900065 6478.431397 7041.580629 7625.932101 8272.523345 8872.095099 9392.822880 10153.943349 11079.310964 11982.524517 12797.666791 13559.019234 14250.614039 14978.770700 15777.797110 16603.616620 17318.031203 18113.642475 18732.739438 18313.608028 17695.028089 17492.619450 16502.260494 15754.678166 15652.797436 15652.797436 15652.797436 -0.000001 -0.000001 -0.000001 -0.000001 -0.000002 -0.000004 -0.000007 -0.000010 -0.000014 -0.000020 -0.000028 -0.000039 -0.000053 -0.000071 -0.000095 -0.000125 -0.000162 -0.000208 -0.000261 -0.000320 -0.000382 -0.000438 -0.000474 -0.000466 -0.000378 -0.000149 0.000309 0.001127 0.002499 0.004702 0.008127 0.013328 0.021068 0.032399 0.048749 0.072048 0.104871 0.150637 0.213841 0.300348 0.417758 0.575840 0.787061 1.067220 1.436190 1.918800 2.545847 3.355270 4.393486 5.716893 7.393558 9.505075 12.148609 15.439111 19.511694 24.524175 30.659757 38.129860 47.177090 58.078401 71.148511 86.743744 105.266618 127.171724 152.973755 183.259034 218.702374 260.091787 308.364286 364.657431 430.384708 507.352340 597.965299 705.757746 838.315621 1015.412221 1264.228416 1572.898303 1922.257046 2397.104715 3006.016916 3668.159775 4321.211680 4941.613746 5526.332327 6085.967107 6643.928191 7225.133029 7842.662130 8454.520792 9070.495545 9820.311390 10692.866985 11590.255892 12453.205639 13258.432154 14015.345673 14759.538587 15519.029304 16276.452527 16960.395640 17530.383765 17833.765127 17662.598265 17193.859498 16667.530014 16082.100766 15621.643495 15527.026934 15527.026934 15527.026934 -0.000001 -0.000001 -0.000001 -0.000001 -0.000002 -0.000004 -0.000007 -0.000010 -0.000014 -0.000020 -0.000028 -0.000039 -0.000053 -0.000071 -0.000095 -0.000125 -0.000162 -0.000208 -0.000261 -0.000320 -0.000382 -0.000438 -0.000474 -0.000466 -0.000378 -0.000149 0.000309 0.001127 0.002499 0.004702 0.008127 0.013328 0.021068 0.032399 0.048749 0.072048 0.104871 0.150637 0.213841 0.300348 0.417758 0.575840 0.787061 1.067220 1.436190 1.918800 2.545847 3.355270 4.393486 5.716893 7.393558 9.505075 12.148609 15.439111 19.511694 24.524175 30.659757 38.129860 47.177090 58.078401 71.148511 86.743744 105.266618 127.171724 152.973755 183.259034 218.702374 260.091787 308.364286 364.657431 430.384708 507.352340 597.965299 705.757746 838.315621 1015.412221 1264.228416 1572.898303 1922.257046 2397.104715 3006.016916 3668.159775 4321.211680 4941.613746 5526.332327 6085.967107 6643.928191 7225.133029 7842.662130 8454.520792 9070.495545 9820.311390 10692.866985 11590.255892 12453.205639 13258.432154 14015.345673 14759.538587 15519.029304 16276.452527 16960.395640 17530.383765 17833.765127 17662.598265 17193.859498 16667.530014 16082.100766 15621.643495 15527.026934 15527.026934 15527.026934 -0.000001 -0.000001 -0.000001 -0.000001 -0.000002 -0.000004 -0.000007 -0.000010 -0.000014 -0.000020 -0.000028 -0.000039 -0.000053 -0.000071 -0.000095 -0.000125 -0.000162 -0.000208 -0.000261 -0.000320 -0.000382 -0.000438 -0.000474 -0.000466 -0.000378 -0.000149 0.000309 0.001127 0.002499 0.004702 0.008127 0.013328 0.021068 0.032399 0.048749 0.072048 0.104871 0.150637 0.213841 0.300348 0.417758 0.575840 0.787061 1.067220 1.436190 1.918800 2.545847 3.355270 4.393486 5.716893 7.393558 9.505075 12.148609 15.439111 19.511694 24.524175 30.659757 38.129860 47.177090 58.078401 71.148511 86.743744 105.266618 127.171724 152.973755 183.259034 218.702374 260.091787 308.364286 364.657431 430.384708 507.352340 597.965299 705.757746 838.315621 1015.412221 1264.228416 1572.898303 1922.257046 2397.104715 3006.016916 3668.159775 4321.211680 4941.613746 5526.332327 6085.967107 6643.928191 7225.133029 7842.662130 8454.520792 9070.495545 9820.311390 10692.866985 11590.255892 12453.205639 13258.432154 14015.345673 14759.538587 15519.029304 16276.452527 16960.395640 17530.383765 17833.765127 17662.598265 17193.859498 16667.530014 16082.100766 15621.643495 15527.026934 15527.026934 15527.026934 -1339.875814 -1466.944122 -1672.140096 -2037.922942 -2544.348142 -1487.442567 -82.549438 -745.091011 -1616.327476 -405.928724 1017.509974 312.058316 -574.888741 -1510.609409 -650.170690 1340.052523 640.652701 -758.042274 -1786.413310 108.500515 1617.215321 -63.551323 -1949.371866 -615.280500 2257.874727 1201.939437 -246.587186 -1821.812979 -1316.607390 2059.110950 1781.900141 349.038418 -1014.763612 -2233.612972 1003.616202 3526.589785 2818.757321 2536.426680 2316.297232 3181.002778 4561.253779 3856.096646 3358.133692 5033.955424 6004.929262 7225.605656 7312.966809 8241.612693 9699.185229 10601.129926 9912.797679 10117.842438 10471.366845 10505.193710 10505.193710 10505.193710 -288.404893 -359.153185 -150.785579 10898.248501 8621.642408 10579.783962 7004.994091 8024.310134 9074.176739 9374.008525 7866.080165 11070.941828 8392.739566 9453.970014 9600.583630 9016.629973 9576.545674 9408.582324 7968.928769 9149.260853 9096.337408 9070.585703 9155.560920 9765.237111 10220.259553 8221.778986 8819.210797 8839.797649 9501.841078 10686.773044 9656.470172 8847.337826 12123.099708 10227.319247 10105.907449 10632.925114 10473.961286 12588.409517 9944.181692 8721.996523 10230.341344 8372.135210 10386.630329 12268.263567 8874.868770 8293.545278 11072.684617 13159.224803 10658.141905 8821.969597 12848.784145 9550.370912 10308.600314 10379.647094 10379.647094 10379.647094 123.515072 96.140746 6787.038175 1310.420103 7577.463885 8241.463026 10448.187756 7727.006633 9066.222285 9309.514175 10052.376503 8613.682488 11781.612419 8599.684244 7740.677588 8459.805933 4789.531883 8091.617265 7543.872445 9915.071995 9634.792035 9967.765943 8020.310719 8351.702528 9500.849200 9753.184187 7486.340417 7041.180059 9603.096462 10313.433105 5625.897676 8643.990150 10436.230332 9014.940527 10560.831996 7541.732149 8525.370584 7477.254124 8891.855216 10095.286542 9231.100879 9710.410403 7818.567911 11192.474172 8431.632359 11263.694843 9486.970750 12705.678993 8918.800334 14847.882988 10886.584838 10357.876744 10239.998676 10156.814001 10156.814001 10156.814001 -196.348581 -812.827864 8058.805630 6860.819678 8955.678240 6065.548838 9977.909816 10166.462647 10991.300362 9098.697467 10561.281476 11500.190355 7828.327436 5740.053826 11658.755204 8655.534366 9335.028284 8399.374189 8578.799034 9558.974470 11085.297714 6572.773426 6635.013777 8025.213516 7426.771268 6949.556314 10987.998951 6549.602757 9738.704348 8769.051840 10020.094644 8753.199563 7958.587972 6775.992126 7438.370862 8112.051880 8930.540338 6491.892746 9709.654422 8021.821179 6081.614306 8194.574232 8277.096745 11346.126271 8159.885855 12791.534199 14450.256330 9555.378671 11560.134387 12525.255406 11647.299485 9205.454193 9863.647295 9947.973091 9947.973091 9947.973091 862.472507 2085.270803 1927.307302 4158.743851 1827.859436 11783.204720 9102.198775 8595.810853 7418.733938 7869.184963 2440.960806 8255.509519 9273.912126 8318.597354 6482.656880 9935.347070 2283.025879 5999