<VTKFile type="PolyData">
<PolyData>
<Piece NumberOfPoints="8632" NumberOfVerts="8632" NumberOfLines="0" NumberOfStrips="0" NumberOfPolys="0">
<PointData>
<DataArray type="Float64" Name="Pressure" format="ascii">
 -0.000000 -0.000000 -0.000000 -0.000000 -0.000001 -0.000002 -0.000004 -0.000007 -0.000015 -0.000030 -0.000057 -0.000110 -0.000209 -0.000390 -0.000721 -0.001317 -0.002375 -0.004231 -0.007445 -0.012940 -0.022216 -0.037672 -0.063092 -0.104353 -0.170444 -0.274896 -0.437750 -0.688195 -1.068015 -1.635977 -2.473215 -3.689630 -5.431156 -7.887593 -11.300472 -15.970146 -22.261034 -30.603673 -41.492001 -55.474212 -73.135570 -95.071884 -121.852968 -153.976388 -191.813181 -235.548741 -285.123517 -340.178647 -400.010248 -463.530967 -529.225286 -595.058586 -658.240829 -714.622194 -757.263052 -774.174085 -747.346481 -655.017539 -500.562243 -363.416513 -316.437253 -295.237189 -228.513225 -177.376454 -192.919712 -189.105952 -68.168747 134.906322 320.904906 562.832171 955.524724 1396.035175 1842.981335 2339.244614 2774.101426 3154.947693 3598.236503 4113.810604 4649.739542 5173.320899 5697.491259 6240.694628 6782.196764 7323.907529 7861.818816 8391.888432 8901.052292 9400.392460 9902.768741 10399.774092 10870.297338 11296.372729 11682.551726 12056.678522 12449.132217 12864.698540 13277.020837 13651.485534 13959.285306 14185.710715 14314.740419 14321.130682 14212.687062 14041.578475 13884.303344 13812.552999 13877.267962 14011.885273 14047.956693 14047.956693 14047.956693 -0.000000 -0.000000 -0.000000 -0.000000 -0.000001 -0.000002 -0.000004 -0.000007 -0.000015 -0.000030 -0.000057 -0.000110 -0.000209 -0.000390 -0.000721 -0.001317 -0.002375 -0.004231 -0.007445 -0.012940 -0.022216 -0.037672 -0.063092 -0.104353 -0.170444 -0.274896 -0.437750 -0.688195 -1.068015 -1.635977 -2.473215 -3.689630 -5.431156 -7.887593 -11.300472 -15.970146 -22.261034 -30.603673 -41.492001 -55.474212 -73.135570 -95.071884 -121.852968 -153.976388 -191.813181 -235.548741 -285.123517 -340.178647 -400.010248 -463.530967 -529.225286 -595.058586 -658.240829 -714.622194 -757.263052 -774.174085 -747.346481 -655.017539 -500.562243 -363.416513 -316.437253 -295.237189 -228.513225 -177.376454 -192.919712 -189.105952 -68.168747 134.906322 320.904906 562.832171 955.524724 1396.035175 1842.981335 2339.244614 2774.101426 3154.947693 3598.236503 4113.810604 4649.739542 5173.320899 5697.491259 6240.694628 6782.196764 7323.907529 7861.818816 8391.888432 8901.052292 9400.392460 9902.768741 10399.774092 10870.297338 11296.372729 11682.551726 12056.678522 12449.132217 12864.698540 13277.020837 13651.485534 13959.285306 14185.710715 14314.740419 14321.130682 14212.687062 14041.578475 13884.303344 13812.552999 13877.267962 14011.885273 14047.956693 14047.956693 14047.956693 -0.000000 -0.000000 -0.000000 -0.000000 -0.000001 -0.000002 -0.000004 -0.000007 -0.000015 -0.000030 -0.000057 -0.000110 -0.000209 -0.000390 -0.000721 -0.001317 -0.002375 -0.004231 -0.007445 -0.012940 -0.022216 -0.037672 -0.063092 -0.104353 -0.170444 -0.274896 -0.437750 -0.688195 -1.068015 -1.635977 -2.473215 -3.689630 -5.431156 -7.887593 -11.300472 -15.970146 -22.261034 -30.603673 -41.492001 -55.474212 -73.135570 -95.071884 -121.852968 -153.976388 -191.813181 -235.548741 -285.123517 -340.178647 -400.010248 -463.530967 -529.225286 -595.058586 -658.240829 -714.622194 -757.263052 -774.174085 -747.346481 -655.017539 -500.562243 -363.416513 -316.437253 -295.237189 -228.513225 -177.376454 -192.919712 -189.105952 -68.168747 134.906322 320.904906 562.832171 955.524724 1396.035175 1842.981335 2339.244614 2774.101426 3154.947693 3598.236503 4113.810604 4649.739542 5173.320899 5697.491259 6240.694628 6782.196764 7323.907529 7861.818816 8391.888432 8901.052292 9400.392460 9902.768741 10399.774092 10870.297338 11296.372729 11682.551726 12056.678522 12449.132217 12864.698540 13277.020837 13651.485534 13959.285306 14185.710715 14314.740419 14321.130682 14212.687062 14041.578475 13884.303344 13812.552999 13877.267962 14011.885273 14047.956693 14047.956693 14047.956693 -0.000000 -0.000000 -0.000000 -0.000000 -0.000001 -0.000002 -0.000004 -0.000007 -0.000015 -0.000029 -0.000057 -0.000109 -0.000207 -0.000388 -0.000718 -0.001311 -0.002365 -0.004213 -0.007415 -0.012890 -0.022134 -0.037540 -0.062880 -0.104020 -0.169928 -0.274108 -0.436563 -0.686435 -1.065447 -1.632288 -2.468004 -3.682389 -5.421265 -7.874319 -11.282975 -15.947505 -22.232294 -30.567908 -41.448407 -55.422220 -73.074983 -95.003034 -121.776872 -153.894919 -191.729258 -235.466615 -285.049386 -340.122179 -399.988509 -463.578354 -529.418241 -595.576033 -659.507178 -717.621310 -763.832676 -786.879930 -767.786979 -675.735547 -489.628994 -316.345481 -304.854942 -310.389615 -219.536011 -147.425819 -195.925990 -231.846279 -105.164140 131.922101 284.240292 479.119819 906.810291 1358.003381 1775.101457 2311.561426 2740.730113 3067.212503 3500.624864 4025.736536 4572.348781 5094.930489 5601.223531 6152.764067 6675.625036 7212.290020 7737.311153 8271.836895 8770.605378 9258.242916 9753.368124 10245.872335 10708.382677 11113.514036 11470.436194 11819.978874 12208.132725 12640.980975 13073.327396 13465.042894 13783.012683 14014.618372 14154.830828 14158.768861 14046.104497 13877.382485 13733.964526 13687.803211 13802.048364 14003.431187 14056.364922 14056.364922 14056.364922 -0.000000 -0.000000 -0.000000 -0.000000 -0.000000 -0.000001 -0.000003 -0.000007 -0.000014 -0.000028 -0.000054 -0.000104 -0.000197 -0.000369 -0.000684 -0.001251 -0.002262 -0.004037 -0.007118 -0.012396 -0.021322 -0.036225 -0.060781 -0.100716 -0.164801 -0.266271 -0.424761 -0.668933 -1.039895 -1.595574 -2.416107 -3.610248 -5.322686 -7.741959 -11.108434 -15.721572 -21.945386 -30.210732 -41.012869 -54.902580 -72.469227 -94.314397 -121.015464 -153.079395 -190.888693 -234.643314 -284.304792 -339.551654 -399.759354 -464.026262 -531.288013 -600.615077 -671.910961 -747.339930 -834.581682 -931.512872 -1011.519782 -1043.680462 -459.863092 348.476160 -121.789300 -726.510705 -115.815750 453.051615 -209.279397 -863.284358 -733.600744 448.962785 11.292088 -876.057415 426.070068 1245.614225 519.479885 2338.366585 2579.142658 1779.025573 2212.051834 2780.635561 3319.455123 3973.568742 4072.809786 4926.045570 5131.447063 5642.395171 6050.815651 6709.108831 7142.381291 7516.797198 7978.216881 8461.815971 8871.683196 9043.003929 9062.700351 9149.760725 9558.750772 10287.232441 10985.240040 11561.327549 11999.592182 12263.100057 12553.527607 12493.631612 12276.640264 12125.371630 12090.098935 12402.416458 12967.914929 13917.889433 14156.214823 14156.214823 14156.214823 -0.000000 -0.000000 -0.000000 -0.000000 -0.000000 -0.000001 -0.000002 -0.000006 -0.000013 -0.000026 -0.000051 -0.000097 -0.000186 -0.000349 -0.000647 -0.001187 -0.002149 -0.003844 -0.006792 -0.011852 -0.020428 -0.034775 -0.058461 -0.097058 -0.159116 -0.257564 -0.411626 -0.649419 -1.011354 -1.554496 -2.357942 -3.529260 -5.211838 -7.592890 -10.911558 -15.466349 -21.620816 -29.806106 -40.518805 -54.312345 -71.780318 -93.530332 -120.147721 -152.149522 -189.930904 -233.708726 -283.470641 -338.944148 -399.611688 -464.824666 -534.135784 -608.138534 -690.541523 -793.356527 -951.392712 -1134.650188 -1337.328857 -1712.734881 -828.040048 1019.546003 46.111988 -1566.029770 -27.256911 1518.300574 -116.550627 -2080.786787 -2136.196323 1390.511203 -87.796780 -3989.448694 -84.984112 1851.969086 -3449.446076 1897.497115 2315.958312 -1435.437256 252.076305 735.289759 -281.858882 2504.099195 -916.716675 3442.533468 694.526241 2974.504264 1757.228462 3922.928573 4133.752662 4393.993803 4894.348854 5686.551979 6225.650279 6252.271044 6258.075074 5953.404896 6541.920366 8049.504633 8876.107026 9093.686472 10313.412215 9942.305789 11571.081657 10303.972110 9503.970288 9621.333315 9112.078839 10462.386568 12312.782972 13913.529682 14365.181728 14365.181728 14365.181728 -0.000000 -0.000000 -0.000000 -0.000000 -0.000000 -0.000001 -0.000000 -0.000000 -0.000000 -0.000000 -0.000000 -0.000000 -0.000000 -0.000000 -0.000000 -0.000000 -0.000000 -0.000000 -0.000000 -0.000000 -0.000000 -0.000000 -0.000000 -0.000000 -0.000000 -0.000000 -0.000000 -0.000000 -0.000000 -0.000000 0.000000 0.000000 0.000000 0.000000 -0.000000 -0.000000 0.000000 0.000000 0.000000 0.000000 0.000000 0.000000 0.000000 0.000000 0.000000 0.000000 0.000000 0.000000 0.000000 0.000000 0.000000 0.000000 0.000000 0.000000 0.000000 0.000000 0.000000 0.000000 0.000000 0.000000 0.000000 0.000000 0.000000 0.000000 0.000000 0.000000 0.000000 0.000000 0.000000 0.000000 0.000000 0.000000 0.000000 0.000000 0.000000 0.000000 0.000000 0.000000 0.000000 0.000000 0.000000 0.000000 0.000000 0.000000 0.000000 0.000000 0.000000 0.000000 0.000000 0.000000 0.000000 0.000000 0.000000 0.000000 0.000000 0.000000 0.000000 0.000000 0.000000 0.000000 0.000000 0.000000 0.000000 0.000000 0.000000 0.000000 0.000000 0.000000 0.000000 0.000000 0.000000 0.000000 0.000000 0.000000 0.000000 0.000000 0.000000 0.000000 0.000000 0.000000 0.000000 0.000000 0.000000 0.000000 0.000000 0.000000 0.000000 0.000000 0.000000 0.000000 0.000000 0.000000 0.000000 0.000000 0.000000 0.000000 0.000000 0.000000 0.000000 0.000000 0.000000 0.000000 0.000000 0.000000 0.000000 0.000000 0.000000 0.000000 0.000000 0.000000 0.000000 0.000000 0.000000 -0.000000 0.000000 0.000000 0.000000 0.000000 0.000000 -0.000000 0.000000 0.000000 0.000000 0.000000 0.000000 -0.000000 0.000000 0.000000 0.000000 0.000000 0.000000 -0.000000 0.000000 0.000000 0.000000 0.000000 0.000000 -0.000000 0.000000 0.000000 0.000000 0.000000 0.000000 -0.000000 0.000000 0.000000 0.000000 0.000000 0.000000 -0.000000 0.000000 0.000000 0.000000 0.000000 0.000000 -0.000000 0.000000 0.000000 0.000000 0.000000 0.000000 -0.000000 0.000000 0.000000 0.000000 0.000000 0.000000 -0.000000 0.000000 0.000000 0.000000 0.000000 0.000000 -0.000000 0.000000 0.000000 0.000000 0.000000 0.000000 -0.000000 0.000000 0.000000 0.000000 0.000000 0.000000 -0.000000 0.000000 0.000000 0.000000 0.000000 0.000000 0.000000 0.000000 0.000000 0.000000 0.000000 0.000000 -0.000000 -0.000000 0.000000 -0.000000 -0.000000 -0.000000 -0.000000 -0.000000 -0.000000 -0.000000 -0.000000 -0.000000 -0.000000 -0.000000 -0.000000 -0.000000 -0.000000 -0.000000 -0.000000 -0.000000 -0.000000 -0.000000 -0.000000 -0.000000 -0.000000 -0.000000 -0.000000 -0.000000 -0.000000 -0.000000 -0.000000 -0.000000 -0.000000 -0.000000 -0.000000 -0.000000 -0.000000 -0.000000 -0.000000 -0.000000 -0.000000 -0.000000 -0.000000 -0.000000 -0.000000 -0.000000 -0.000000 -0.000000 -0.000000 -0.000000 -0.000000 -0.000000 -0.000000 -0.000000 -0.000000 -0.000000 -0.000000 -0.000000 -0.000000 -0.000000 -0.000000 -0.000000 -0.000000 -0.000000 -0.000000 -0.000000 -0.000000 -0.000000 -0.000000 -0.000000 -0.000000 -0.000000 -0.000000 -0.000000 -0.000000 -0.000000 -0.000000 -0.000000 -0.000000 -0.000000 -0.000000 -0.000000 -0.000000 -0.000000 -0.000000 -0.000000 -0.000000 -0.000000 -0.000000 -0.000000 -0.000000 -0.000000 -0.000000 -0.000000 -0.000000 -0.000000 -0.000000 -0.000000 -0.000000 -0.000000 -0.000000 -0.000000 -0.000000 -0.000000 -0.000000 -0.000000 -0.000000 -0.000000 -0.000000 -0.000000 -0.000000 -0.000000 -0.000000 -0.000000 -0.000000 -0.000000 -0.000000 -0.000000 -0.000000 -0.000000 -0.000000 -0.000000 -0.000000 -0.000000 -0.000000 -0.000000 -0.000000 -0.000000 -0.000000 -0.000000 -0.000000 -0.000000 -0.000000 -0.000000 -0.000000 -0.000000 -0.000000 -0.000000 -0.000000 -0.000000 -0.000000 -0.000000 -0.000000 -0.000000 -0.000000 -0.000000 -0.000000 -0.000000 -0.000000 -0.000000 -0.000000 -0.000000 -0.000000 -0.000000 -0.000000 -0.000000 -0.000000 -0.000000 -0.000000 -0.000000 -0.000000 -0.000000 -0.000000 -0.000000 -0.000000 -0.000000 -0.000000 -0.000000 -0.000000 -0.000000 -0.000000 -0.000000 -0.000000 -0.000000 -0.000000 -0.000000 -0.000000 -0.000000 -0.000000 -0.000000 -0.000000 -0.000000 -0.000000 -0.000000 -0.000000 -0.000000 -0.000000 -0.000000 -0.000000 -0.000000 -0.000000 -0.000000 -0.000000 -0.000000 -0.000000 -0.000000 -0.000000 -0.000000 -0.000000 -0.000000 -0.000000 -0.000000 -0.000000 -0.000000 -0.000000 -0.000000 -0.000000 -0.000000 -0.000000 -0.000000 -0.000000 -0.000000 -0.000000 -0.000000 -0.000000 -0.000000 -0.000000 -0.000000 -0.000000 -0.000000 -0.000000 -0.000000 -0.000000 -0.000000 -0.000000 -0.000000 -0.000000 -0.000000 -0.000000 -0.000000 -0.000000 -0.000000 -0.000000 -0.000000 -0.000000 -0.000000 -0.000000 -0.000000 -0.000000 -0.000000 -0.000000 -0.000000 -0.000000 -0.000000 -0.000000 -0.000000 -0.000000 -0.000000 -0.000000 -0.000000 -0.000000 -0.000000 -0.000000 -0.000000 -0.000000 -0.000000 -0.000000 -0.000000 -0.000000 -0.000000 -0.000000 -0.000000 -0.000000 -0.000000 -0.000000 -0.000000 -0.000000 -0.000000 -0.000000 -0.000000 -0.000000 -0.000000 -0.000000 -0.000000 -0.000000 -0.000000 -0.000000 -0.000000 -0.000000 -0.000000 -0.000000 -0.000000 -0.000000 -0.000000 -0.000000 -0.000000 -0.000000 -0.000000 -0.000000 -0.000000 -0.000000 -0.000000 -0.000000 -0.000000 -0.000000 -0.000000 -0.000000 -0.000000 -0.000000 -0.000000 -0.000000 -0.000000 -0.000000 -0.000000 -0.000000 -0.000000 -0.000000 -0.000000 -0.000000 -0.000000 -0.000000 -0.000000 -0.000000 -0.000000 -0.000000 -0.000000 -0.000000 -0.000000 -0.000000 -0.000000 -0.000000 -0.000000 -0.000000 -0.000000 -0.000000 -0.000000 -0.000000 -0.000000 -0.000000 -0.000000 -0.000000 -0.000000 -0.000000 -0.000000 -0.000000 -0.000000 -0.000000 -0.000000 -0.000000 -0.000000 -0.000000 -0.000000 -0.000000 -0.000000 -0.000000 -0.000000 -0.000000 -0.000000 -0.000000 -0.000000 -0.000000 -0.000000 -0.000000 -0.000000 -0.000000 -0.000000 -0.000000 -0.000000 -0.000000 -0.000000 -0.000000 -0.000000 -0.000000 -0.000000 -0.000000 -0.000000 -0.000000 -0.000000 -0.000000 -0.000000 -0.000000 -0.000000 -0.000000 -0.000000 -0.000000 -0.000000 -0.000000 -0.000000 -0.000000 -0.000000 -0.000000 -0.000000 -0.000000 -0.000000 -0.000000 -0.000000 -0.000000 -0.000000 -0.000000 -0.000000 -0.000000 -0.000000 -0.000000 -0.000000 -0.000000 -0.000000 -0.000000 -0.000000 -0.000000 -0.000000 -0.000000 -0.000000 -0.000000 -0.000000 -0.000000 -0.000000 -0.000000 -0.000000 -0.000000 -0.000000 -0.000000 -0.000000 -0.000000 -0.000000 -0.000000 -0.000000 -0.000000 -0.000000 -0.000000 -0.000000 -0.000000 -0.000000 -0.000000 -0.000000 -0.000000 -0.000000 -0.000000 -0.000000 -0.000000 -0.000000 -0.000000 -0.000000 -0.000000 -0.000000 -0.000000 -0.000000 -0.000000 -0.000000 -0.000000 -0.000000 -0.000000 -0.000000 -0.000000 -0.000000 -0.000000 -0.000000 -0.000000 -0.000000 -0.000000 -0.000000 -0.000000 -0.000000 -0.000000 -0.000000 -0.000000 -0.000000 -0.000000 -0.000000 -0.000000 -0.000000 -0.000000 -0.000000 -0.000000 -0.000000 -0.000000 -0.000000 -0.000000 -0.000000 -0.000000 -0.000000 -0.000000 -0.000000 -0.000000 -0.000000 -0.000000 -0.000000 -0.000000 -0.000000 -0.000000 -0.000000 -0.000000 -0.000000 -0.000000 -0.000000 -0.000000 -0.000000 -0.000000 -0.000000 -0.000000 -0.000000 -0.000000 -0.000000 -0.000000 -0.000000 -0.000000 -0.000000 -0.000000 -0.000000 -0.000000 -0.000000 -0.000000 -0.000000 -0.000000 -0.000000 -0.000000 -0.000000 -0.000000 -0.000000 -0.000000 -0.000000 -0.000000 -0.000000 -0.000000 -0.000000 -0.000000 -0.000000 -0.000000 -0.000000 -0.000000 -0.000000 -0.000000 -0.000000 -0.000000 -0.000000 -0.000000 -0.000000 -0.000000 -0.000000 -0.000000 -0.000000 -0.000000 -0.000000 -0.000000 -0.000000 -0.000000 -0.000000 -0.000000 -0.000000 -0.000000 -0.000000 -0.000000 -0.000000 -0.000000 -0.000000 -0.000000 -0.000000 -0.000000 -0.000000 -0.000000 -0.000000 -0.000000 -0.000000 -0.000000 -0.000000 -0.000000 -0.000000 -0.000000 -0.000000 -0.000000 -0.000000 -0.000000 -0.000000 -0.000000 -0.000000 -0.000000 -0.000000 -0.000000 -0.000000 -0.000000 -0.000000 -0.000000 -0.000000 -0.000000 -0.000000 -0.000000 -0.000000 -0.000000 -0.000000 -0.000000 -0.000000 -0.000000 -0.000000 -0.000000 -0.000000 -0.000000 -0.000000 -0.000000 -0.000000 -0.000000 -0.000000 -0.000000 -0.000000 -0.000000 -0.000000 -0.000000 -0.000000 -0.000000 -0.000000 -0.000000 -0.000000 -0.000000 -0.000000 -0.000000 -0.000000 -0.000000 -0.000000 -0.000000 -0.000000 -0.000000 -0.000000 -0.000000 -0.000000 -0.000000 -0.000000 -0.000000 -0.000000 -0.000000 -0.000000 -0.000000 -0.000000 -0.000000 -0.000000 -0.000000 -0.000000 -0.000000 -0.000000 -0.000000 -0.000000 -0.000000 -0.000000 -0.000000 -0.000000 -0.000000 -0.000000 -0.000000 -0.000000 -0.000000 -0.000000 -0.000000 -0.000000 -0.000000 -0.000000 -0.000000 -0.000000 -0.000000 -0.000000 -0.000000 -0.000000 -0.000000 -0.000000 -0.000000 -0.000000 -0.000000 -0.000000 -0.000000 -0.000000 -0.000000 -0.000000 -0.000000 -0.000000 -0.000000 -0.000000 -0.000000 -0.000000 -0.000000 -0.000000 -0.000000 -0.000000 -0.000000 -0.000000 -0.000000 -0.000000 -0.000000 -0.000000 -0.000000 -0.000000 -0.000000 -0.000000 -0.000000 -0.000000 -0.000000 -0.000000 -0.000000 -0.000000 -0.000000 -0.000000 -0.000000 -0.000000 -0.000000 -0.000000 -0.000000 -0.000000 -0.000000 -0.000000 -0.000000 -0.000000 -0.000000 -0.000000 -0.000000 -0.000000 -0.000000 -0.000000 -0.000000 -0.000000 -0.000000 -0.000000 -0.000000 -0.000000 -0.000000 -0.000000 -0.000000 -0.000000 -0.000000 -0.000000 -0.000000 -0.000000 -0.000000 -0.000000 -0.000000 -0.000000 -0.000000 -0.000000 -0.000000 -0.000000 -0.000000 -0.000000 -0.000000 0.000000 -0.000000 -0.000000 -0.000000 -0.000000 -0.000000 -0.000000 -0.000000 -0.000000 -0.000000 -0.000000 -0.000000 -0.000000 -0.000000 -0.000000 -0.000000 -0.000000 -0.000000 -0.000000 -0.000000 -0.000000 -0.000000 -0.000000 -0.000000 -0.000000 -0.000000 -0.000000 -0.000000 -0.000000 -0.000000 -0.000000 -0.000000 -0.000000 -0.000000 -0.000000 -0.000000 -0.000000 -0.000000 -0.000000 -0.000000 -0.000000 -0.000000 -0.000000 -0.000000 -0.000000 -0.000000 -0.000000 -0.000000 -0.000000 -0.000000 -0.000000 -0.000000 -0.000000 -0.000000 -0.000000 -0.000000 -0.000000 -0.000000 -0.000000 -0.000000 -0.000000 -0.000000 -0.000000 -0.000000 -0.000000 -0.000000 -0.000000 -0.000000 -0.000000 -0.000000 -0.000000 -0.000000 -0.000000 -0.000000 -0.000000 -0.000000 -0.000000 -0.000000 -0.000000 -0.000000 -0.000000 -0.000000 -0.000000 -0.000000 -0.000000 -0.000000 -0.000000 -0.000000 -0.000000 -0.000000 -0.000000 -0.000000 -0.000000 -0.000000 -0.000000 -0.000000 -0.000000 -0.000000 -0.000000 -0.000000 -0.000000 -0.000000 -0.000000 -0.000000 -0.000000 -0.000000 -0.000000 -0.000000 -0.000000 -0.000000 -0.000000 -0.000000 -0.000000 -0.000000 -0.000000 -0.000000 -0.000000 -0.000000 -0.000000 -0.000000 -0.000000 -0.000000 -0.000000 -0.000000 -0.000000 -0.000000 -0.000000 -0.000000 -0.000000 -0.000000 -0.000000 -0.000000 -0.000000 -0.000000 -0.000000 -0.000000 -0.000000 -0.000000 -0.000000 -0.000000 -0.000000 -0.000000 -0.000000 -0.000000 -0.000000 -0.000000 -0.000000 -0.000000 -0.000000 -0.000000 -0.000000 -0.000000 -0.000000 -0.000000 -0.000000 -0.000000 -0.000000 -0.000000 -0.000000 -0.000000 -0.000000 -0.000000 -0.000000 -0.000000 -0.000000 -0.000000 -0.000000 -0.000000 -0.000000 -0.000000 -0.000000 -0.000000 -0.000000 -0.000000 -0.000000 -0.000000 -0.000000 -0.000000 -0.000000 -0.000000 -0.000000 -0.000000 -0.000000 -0.000000 -0.000000 -0.000000 -0.000000 -0.000000 -0.000000 -0.000000 -0.000000 -0.000000 -0.000000 -0.000000 -0.000000 -0.000000 -0.000000 -0.000000 -0.000000 -0.000000 -0.000000 -0.000000 -0.000000 -0.000000 -0.000000 -0.000000 -0.000000 -0.000000 -0.000000 -0.000000 -0.000000 -0.000000 -0.000000 -0.000000 -0.000000 -0.000000 -0.000000 -0.000000 -0.000000 -0.000000 -0.000000 0.000000 -0.000000 0.000000 -0.000000 -0.000000 -0.000000 -0.000000 0.000000 0.000000 -0.000000 -0.000000 -0.000000 0.000000 -0.000000 0.000000 0.000000 0.000000 0.000000 0.000000 -0.000000 -0.000000 -0.000000 -0.000000 -0.000000 -0.000000 -0.000000 -0.000000 -0.000000 -0.000000 -0.000000 -0.000000 -0.000000 -0.000000 -0.000000 -0.000000 -0.000000 -0.000000 -0.000000 -0.000000 -0.000000 -0.000000 -0.000000 -0.000000 -0.000000 -0.000000 -0.000000 -0.000000 -0.000000 -0.000000 -0.000001 -0.000002 -0.000003 -0.000006 -0.000012 -0.000023 -0.000045 -0.000084 -0.000156 -0.000284 -0.000510 -0.000901 -0.001567 -0.002683 -0.004519 -0.007488 -0.012202 -0.019547 -0.030777 -0.047614 -0.072353 -0.107949 -0.158063 -0.227016 -0.319594 -0.440622 -0.594171 -0.782228 -1.002540 -1.245210 -1.487395 -1.685131 -1.761025 -1.586280 -0.955696 0.444783 3.076127 7.584077 14.825465 25.866191 41.932141 64.302393 94.161528 132.488407 180.178817 238.852803 313.410917 418.964607 598.112440 957.664373 1721.045799 3216.323618 2936.179831 775.936107 1107.925134 2711.743472 3807.522426 4597.199615 6264.459993 7107.498747 9920.516479 10832.799382 12770.752632 12650.653393 13984.307957 17390.698200 18489.169495 18294.018707 18088.635998 17802.065234 19086.810331 16525.978166 12607.042618 12474.955131 12592.834960 12592.834960 12592.834960 0.000000 0.000000 0.000000 0.000000 -0.000000 -0.000000 -0.000000 -0.000000 -0.000000 -0.000000 -0.000000 -0.000000 -0.000000 -0.000000 -0.000000 -0.000000 -0.000000 -0.000000 -0.000000 -0.000000 -0.000000 -0.000000 -0.000000 -0.000000 -0.000000 -0.000000 -0.000000 -0.000000 -0.000000 -0.000000 -0.000000 -0.000000 -0.000000 -0.000000 -0.000001 -0.000002 -0.000003 -0.000007 -0.000013 -0.000025 -0.000047 -0.000089 -0.000164 -0.000298 -0.000533 -0.000940 -0.001631 -0.002786 -0.004682 -0.007740 -0.012582 -0.020109 -0.031591 -0.048765 -0.073938 -0.110076 -0.160831 -0.230499 -0.323806 -0.445464 -0.599353 -0.787152 -1.006120 -1.245601 -1.481573 -1.668292 -1.725745 -1.521444 -0.845317 0.622589 3.349528 7.986677 15.393881 26.636683 42.939155 65.585469 95.790800 134.617471 183.108430 242.979591 318.553137 421.344019 579.814295 854.828784 1336.337550 1957.193870 2313.528593 2016.243376 2304.083928 3565.361925 4656.239789 5635.605325 7143.440270 8543.279098 10449.647930 10675.399409 11403.470945 11597.501965 13283.662052 15095.216422 15932.275075 16433.803770 16227.183564 13961.078738 13549.376538 14874.181806 12770.902658 11267.328624 11139.896823 11139.896823 11139.896823 0.000000 0.000000 0.000000 0.000000 0.000000 0.000000 0.000000 0.000000 -0.000000 0.000000 0.000000 0.000000 0.000000 0.000000 -0.000000 -0.000000 -0.000000 -0.000000 -0.000000 -0.000000 -0.000000 -0.000000 -0.000000 -0.000000 -0.000000 -0.000000 -0.000000 -0.000000 -0.000000 -0.000000 -0.000000 -0.000000 -0.000000 -0.000000 -0.000001 -0.000002 -0.000004 -0.000007 -0.000014 -0.000027 -0.000050 -0.000094 -0.000173 -0.000314 -0.000561 -0.000986 -0.001707 -0.002907 -0.004873 -0.008033 -0.013025 -0.020764 -0.032536 -0.050097 -0.075770 -0.112526 -0.164012 -0.234490 -0.328616 -0.450967 -0.605201 -0.792635 -1.009954 -1.245612 -1.474211 -1.647933 -1.683728 -1.444872 -0.715744 0.830225 3.667179 8.451959 16.046921 27.515679 44.077649 67.018151 97.578600 136.901417 186.177012 247.229224 323.862602 424.311868 564.737185 771.504694 1072.468702 1465.826075 1895.882183 2342.984122 2907.750096 3624.515843 4390.324229 5166.481747 5993.459759 6874.505278 7749.346365 8433.446449 9097.695346 9851.359578 10748.415880 11635.881349 12366.701522 12841.484604 12903.455159 12416.542884 12009.508493 11896.044031 11030.122894 10452.988984 10379.475454 10379.475454 10379.475454 -0.000000 -0.000000 -0.000000 -0.000000 -0.000000 0.000000 0.000000 -0.000000 -0.000000 0.000000 0.000000 0.000000 0.000000 0.000000 -0.000000 -0.000000 -0.000000 -0.000000 -0.000000 -0.000000 -0.000000 -0.000000 -0.000000 -0.000000 -0.000000 -0.000000 -0.000000 -0.000000 -0.000000 -0.000000 -0.000000 -0.000000 -0.000000 -0.000000 -0.000001 -0.000002 -0.000004 -0.000007 -0.000014 -0.000027 -0.000051 -0.000095 -0.000175 -0.000317 -0.000566 -0.000995 -0.001721 -0.002929 -0.004907 -0.008086 -0.013105 -0.020882 -0.032707 -0.050337 -0.076100 -0.112966 -0.164583 -0.235206 -0.329477 -0.451949 -0.606241 -0.793601 -1.010614 -1.245567 -1.472817 -1.644169 -1.676025 -1.430900 -0.692182 0.867869 3.724599 8.535810 16.164213 27.672925 44.280286 67.271378 97.891515 137.296093 186.700276 247.948120 324.768353 424.895327 562.659961 759.761128 1038.462378 1404.435273 1838.887952 2332.051679 2913.814917 3590.231697 4311.770861 5051.581045 5823.272244 6625.497717 7408.912928 8115.457234 8808.549231 9562.527630 10381.037151 11173.572046 11837.013534 12276.120953 12412.879965 12269.843217 11935.725550 11433.817360 10807.351273 10361.989361 10278.317766 10278.317766 10278.317766 -0.000000 -0.000000 -0.000000 -0.000000 -0.000000 0.000000 0.000000 -0.000000 0.000000 0.000000 0.000000 0.000000 0.000000 0.000000 -0.000000 -0.000000 -0.000000 -0.000000 -0.000000 -0.000000 -0.000000 -0.000000 -0.000000 -0.000000 -0.000000 -0.000000 -0.000000 -0.000000 -0.000000 -0.000000 -0.000000 -0.000000 -0.000000 -0.000000 -0.000001 -0.000002 -0.000004 -0.000007 -0.000014 -0.000027 -0.000051 -0.000095 -0.000175 -0.000317 -0.000566 -0.000995 -0.001721 -0.002929 -0.004907 -0.008086 -0.013105 -0.020882 -0.032707 -0.050337 -0.076100 -0.112966 -0.164583 -0.235206 -0.329477 -0.451949 -0.606241 -0.793601 -1.010614 -1.245567 -1.472817 -1.644169 -1.676025 -1.430900 -0.692182 0.867869 3.724599 8.535810 16.164213 27.672925 44.280286 67.271378 97.891515 137.296093 186.700276 247.948120 324.768353 424.895327 562.659961 759.761128 1038.462378 1404.435273 1838.887952 2332.051679 2913.814917 3590.231697 4311.770861 5051.581045 5823.272244 6625.497717 7408.912928 8115.457234 8808.549231 9562.527630 10381.037151 11173.572046 11837.013534 12276.120953 12412.879965 12269.843217 11935.725550 11433.817360 10807.351273 10361.989361 10278.317766 10278.317766 10278.317766 -0.000000 -0.000000 -0.000000 -0.000000 -0.000000 0.000000 0.000000 -0.000000 0.000000 0.000000 0.000000 0.000000 0.000000 0.000000 -0.000000 -0.000000 -0.000000 -0.000000 -0.000000 -0.000000 -0.000000 -0.000000 -0.000000 -0.000000 -0.000000 -0.000000 -0.000000 -0.000000 -0.000000 -0.000000 -0.000000 -0.000000 -0.000000 -0.000000 -0.000001 -0.000002 -0.000004 -0.000007 -0.000014 -0.000027 -0.000051 -0.000095 -0.000175 -0.000317 -0.000566 -0.000995 -0.001721 -0.002929 -0.004907 -0.008086 -0.013105 -0.020882 -0.032707 -0.050337 -0.076100 -0.112966 -0.164583 -0.235206 -0.329477 -0.451949 -0.606241 -0.793601 -1.010614 -1.245567 -1.472817 -1.644169 -1.676025 -1.430900 -0.692182 0.867869 3.724599 8.535810 16.164213 27.672925 44.280286 67.271378 97.891515 137.296093 186.700276 247.948120 324.768353 424.895327 562.659961 759.761128 1038.462378 1404.435273 1838.887952 2332.051679 2913.814917 3590.231697 4311.770861 5051.581045 5823.272244 6625.497717 7408.912928 8115.457234 8808.549231 9562.527630 10381.037151 11173.572046 11837.013534 12276.120953 12412.879965 12269.843217 11935.725550 11433.817360 10807.351273 10361.989361 10278.317766 10278.317766 10278.317766 -1190.315340 -1441.282310 -1816.537922 -494.042674 1084.814547 -385.453795 -1598.769125 563.316688 1440.660728 -533.396190 -2608.938762 -1711.117179 1876.439109 -1177.132175 -4388.653313 1291.471801 500.189631 -4422.169152 1386.075831 385.442935 -2406.891850 875.244398 273.915346 -180.952975 1950.033674 -1525.911532 3625.330695 -765.681517 2797.679965 744.596867 4493.674872 2878.311090 3881.087521 4552.341343 5243.984151 6077.844168 6028.027676 6179.835753 6099.873199 6779.189299 8645.650382 8927.733079 9254.769971 10137.097402 9939.244327 11825.304807 9560.539679 9447.703050 9131.937058 8498.273549 10404.118679 12851.914474 14154.392481 14426.727333 14426.727333 14426.727333 466.983905 109.605518 445.684316 863.155867 550.723881 -524.050886 2002.612465 943.727805 1223.815478 3132.286581 2247.777172 2510.108848 2744.821578 3071.843339 3178.003900 3530.418965 4055.531382 4866.202410 6599.455412 7784.709288 9364.218227 10384.240288 10605.269323 10495.601798 9599.746998 9044.955962 8678.186626 9281.867445 7507.094006 9542.408363 9690.714833 10239.886464 10190.710563 10832.421363 9594.400080 10100.362358 11058.325195 9843.809387 10475.789763 11915.558341 12672.034139 11845.591251 7805.810674 7744.719546 7305.272217 8679.024370 5560.385897 8745.112645 9920.008293 12108.595428 8366.884062 15902.733521 15301.777395 15123.633836 15123.633836 15123.633836 706.868209 890.917817 9.479112 -769.737601 847.941087 -2799.288117 2701.796756 1495.848807 2333.378506 2897.708396 2647.863508 2947.535747 3909.260750 4297.784505 4436.222369 4841.706994 4768.065102 5081.739408 5766.416421 6996.507016 7974.427061 8758.945748 9692.560490 9871.233797 9452.168258 8645.249110 8328.593278 7036.875932 7910.367818 9121.080413 10508.802662 12389.193621 11076.143735 13515.534740 12872.828161 13804.104681 13748.524701 14132.274696 13686.236687 11987.156237 14417.322306 12476.655230 10493.210931 13181.515827 14231.102831 15337.205909 11865.851375 14890.619969 9333.194863 6124.888159 7671.592215 20104.989403 17050.605603 16532.591060 16532.591060 16532.591060 -454.519975 2436.906366 -69.980503 191.409137 1559.586993 1342.063199 -880.957392 2148.674078 1742.919471 1195.122648 1914.641552 2064.441914 2584.580857 3096.324848 3695.762097 5075.585559 5456.554964 6097.517541 6219.488475 6445.842974 6628.604983 6884.261630 7856.629892 8465.253266 9138.758413 9515.655096 10480.221210 11287.786027 9237.650457 10954.705798 8668.005767 9744.686194 8243.548369 11571.050330 11516.679450 13467.612674 12874.829961 14612.195507 13550.303578 13295.943492 14695.849788 16621.028755 11899.147850 15536.936292 15375.276664 15454.628091 15884.139114 7662.720292 11058.675340 12401.365047 10179.100592 19235.995642 18112.021360 18001.760117 18001.760117 18001.760117 1336.022188 1485.422970 -202.795048 567.805877 170.522335 988.938570 1541.473325 2010.190390 2540.507772 3390.390332 3108.928522 2922.064457 2736.322458 3095.857864 3744.523271 4738.420481 5455.731920 6304.046440 6724.194098 6914.066565 6962.305621 7047.026972 7118.880554 7091.434834 8625.862524 7850.980853 10724.723121 10078.952649 11695.785601 10715.538912 12109.592587 10981.357607 11076.472606 10812.396402 12069.624037 11557.052176 13086.506287 12877.485618 14781.440480 14357.389269 14677.384326 14915.309910 14897.017730 15450.448104 14734.068475 15