<VTKFile type="PolyData">
<PolyData>
<Piece NumberOfPoints="8632" NumberOfVerts="8632" NumberOfLines="0" NumberOfStrips="0" NumberOfPolys="0">
<PointData>
<DataArray type="Float64" Name="Pressure" format="ascii">
 -0.000000 -0.000000 -0.000000 -0.000000 -0.000000 -0.000000 0.000000 0.000000 0.000000 0.000000 0.000000 0.000000 0.000000 0.000000 0.000000 0.000000 0.000000 0.000000 0.000000 0.000000 0.000000 0.000000 0.000000 0.000000 0.000000 0.000000 0.000000 0.000000 -0.000000 -0.000000 -0.000000 -0.000000 -0.000001 -0.000006 -0.000024 -0.000093 -0.000342 -0.001188 -0.003915 -0.012220 -0.036150 -0.101344 -0.269259 -0.678033 -1.618214 -3.660075 -7.843546 -15.918538 -30.571909 -55.496060 -95.065263 -153.313720 -231.664998 -323.627833 -401.094687 -400.463890 -280.462254 -116.109800 11.669609 83.378660 61.209154 21.955972 8.437618 6.630165 7.453360 10.022258 14.480541 21.043919 30.360528 43.405334 61.320922 85.286643 116.383957 155.428540 202.819317 258.467938 321.865878 392.299913 469.152441 552.159754 641.508371 737.721267 841.397555 952.950814 1072.479072 1199.803648 1334.601786 1476.506041 1625.097202 1779.829732 1940.000107 2104.814911 2273.496300 2445.297463 2619.366963 2794.630910 2969.767221 3143.297392 3313.498405 3477.637340 3630.381309 3759.914869 3836.860483 3798.746061 3543.101129 2962.914393 2100.854429 1414.550529 1278.603117 1278.603117 1278.603117 -0.000000 -0.000000 -0.000000 -0.000000 -0.000000 -0.000000 0.000000 0.000000 0.000000 0.000000 0.000000 0.000000 0.000000 0.000000 0.000000 0.000000 0.000000 0.000000 0.000000 0.000000 0.000000 0.000000 0.000000 0.000000 0.000000 0.000000 0.000000 0.000000 -0.000000 -0.000000 -0.000000 -0.000000 -0.000001 -0.000006 -0.000024 -0.000093 -0.000342 -0.001188 -0.003915 -0.012220 -0.036150 -0.101344 -0.269259 -0.678033 -1.618214 -3.660075 -7.843546 -15.918538 -30.571909 -55.496060 -95.065263 -153.313720 -231.664998 -323.627833 -401.094687 -400.463890 -280.462254 -116.109800 11.669609 83.378660 61.209154 21.955972 8.437618 6.630165 7.453360 10.022258 14.480541 21.043919 30.360528 43.405334 61.320922 85.286643 116.383957 155.428540 202.819317 258.467938 321.865878 392.299913 469.152441 552.159754 641.508371 737.721267 841.397555 952.950814 1072.479072 1199.803648 1334.601786 1476.506041 1625.097202 1779.829732 1940.000107 2104.814911 2273.496300 2445.297463 2619.366963 2794.630910 2969.767221 3143.297392 3313.498405 3477.637340 3630.381309 3759.914869 3836.860483 3798.746061 3543.101129 2962.914393 2100.854429 1414.550529 1278.603117 1278.603117 1278.603117 -0.000000 -0.000000 -0.000000 -0.000000 -0.000000 -0.000000 0.000000 0.000000 0.000000 0.000000 0.000000 0.000000 0.000000 0.000000 0.000000 0.000000 0.000000 0.000000 0.000000 0.000000 0.000000 0.000000 0.000000 0.000000 0.000000 0.000000 0.000000 0.000000 -0.000000 -0.000000 -0.000000 -0.000000 -0.000001 -0.000006 -0.000024 -0.000093 -0.000342 -0.001188 -0.003915 -0.012220 -0.036150 -0.101344 -0.269259 -0.678033 -1.618214 -3.660075 -7.843546 -15.918538 -30.571909 -55.496060 -95.065263 -153.313720 -231.664998 -323.627833 -401.094687 -400.463890 -280.462254 -116.109800 11.669609 83.378660 61.209154 21.955972 8.437618 6.630165 7.453360 10.022258 14.480541 21.043919 30.360528 43.405334 61.320922 85.286643 116.383957 155.428540 202.819317 258.467938 321.865878 392.299913 469.152441 552.159754 641.508371 737.721267 841.397555 952.950814 1072.479072 1199.803648 1334.601786 1476.506041 1625.097202 1779.829732 1940.000107 2104.814911 2273.496300 2445.297463 2619.366963 2794.630910 2969.767221 3143.297392 3313.498405 3477.637340 3630.381309 3759.914869 3836.860483 3798.746061 3543.101129 2962.914393 2100.854429 1414.550529 1278.603117 1278.603117 1278.603117 -0.000000 -0.000000 -0.000000 -0.000000 -0.000000 -0.000000 0.000000 0.000000 0.000000 0.000000 0.000000 0.000000 0.000000 0.000000 0.000000 0.000000 0.000000 0.000000 0.000000 0.000000 0.000000 0.000000 0.000000 0.000000 0.000000 0.000000 0.000000 0.000000 -0.000000 -0.000000 -0.000000 -0.000000 -0.000001 -0.000006 -0.000024 -0.000091 -0.000336 -0.001169 -0.003858 -0.012060 -0.035723 -0.100284 -0.266820 -0.672880 -1.608447 -3.644311 -7.825375 -15.920082 -30.670195 -55.915527 -96.412036 -157.181261 -242.175913 -350.754295 -459.789817 -486.922600 -337.406544 -135.054491 10.525922 124.886965 83.849175 26.234689 14.247275 14.248612 16.049523 20.370166 27.815696 38.522105 53.350234 73.534767 100.428600 135.281666 179.040502 232.128869 294.325061 364.818644 442.480994 526.288798 615.732133 711.000859 812.838916 922.140288 1039.511217 1165.043528 1298.392408 1439.046170 1586.553512 1740.551987 1900.629287 2066.172442 2236.397106 2410.565449 2588.172626 2768.933925 2952.322229 3137.333880 3322.420439 3506.109901 3687.364269 3864.507649 4033.714097 4182.466477 4281.897053 4250.565717 3987.454498 3348.922386 2348.703780 1528.862887 1372.355000 1372.355000 1372.355000 -0.000000 -0.000000 -0.000000 -0.000000 -0.000000 -0.000000 0.000000 0.000000 0.000000 0.000000 0.000000 0.000000 0.000000 0.000000 0.000000 0.000000 0.000000 0.000000 0.000000 0.000000 0.000000 0.000000 0.000000 0.000000 0.000000 0.000000 0.000000 0.000000 -0.000000 -0.000000 -0.000000 -0.000000 -0.000001 -0.000005 -0.000019 -0.000075 -0.000281 -0.000991 -0.003317 -0.010517 -0.031599 -0.089995 -0.243004 -0.622280 -1.511844 -3.486616 -7.638271 -15.913019 -31.583487 -59.920676 -109.401564 -194.780429 -345.928196 -628.006697 -1177.372402 -1772.891602 -1142.628290 -1.053183 -374.939869 1162.841455 310.681829 -8.507182 62.135757 90.111433 96.945328 131.496066 186.446019 264.570653 367.868570 501.116113 666.444200 863.784822 1089.381321 1335.768528 1593.008876 1851.539637 2105.625384 2355.552600 2607.131520 2868.579973 3146.076991 3440.417048 3746.403490 4055.991412 4362.685610 4664.109523 4960.889551 5253.628004 5541.222599 5821.881035 6095.453875 6364.966191 6635.880753 6915.291549 7208.884366 7519.100763 7847.139722 8193.560508 8570.540571 8973.724178 9385.026323 9732.789753 10101.625249 10009.085454 9743.754089 8656.029808 5716.259366 3035.496462 2448.681689 2448.681689 2448.681689 -0.000000 -0.000000 -0.000000 -0.000000 -0.000000 -0.000000 0.000000 0.000000 0.000000 0.000000 0.000000 0.000000 0.000000 0.000000 0.000000 0.000000 0.000000 0.000000 0.000000 0.000000 0.000000 0.000000 0.000000 0.000000 0.000000 0.000000 0.000000 0.000000 -0.000000 -0.000000 -0.000000 -0.000000 -0.000001 -0.000004 -0.000015 -0.000061 -0.000230 -0.000824 -0.002804 -0.009039 -0.027623 -0.080058 -0.220144 -0.574683 -1.425422 -3.363413 -7.563269 -16.251147 -33.505406 -66.746704 -130.051984 -253.046748 -507.028880 -1081.186702 -2495.933673 -4890.258311 -3323.933515 -328.322622 -4209.706405 2012.357108 243.189432 -688.860530 215.233678 51.963231 189.092803 257.449443 469.910333 726.279558 1072.374772 1499.211455 2005.864129 2572.985432 3174.039512 3776.595190 4354.174716 4897.194218 5419.305351 5953.122122 6533.921307 7179.173308 7878.517340 8600.960110 9309.878973 9978.804933 10599.700604 11177.905287 11719.325136 12220.017036 12669.711672 13067.885221 13428.046190 13780.032767 14139.783521 14525.072034 14957.170878 15478.223000 16166.564102 17007.344021 18079.113537 18976.311818 20063.422139 19665.556415 20685.819824 21239.258456 24319.413928 21353.169731 9225.021380 4960.678773 4080.394767 4080.394767 4080.394767 -0.000000 -0.000000 -0.000000 -0.000000 -0.000000 0.000000 -0.000000 -0.000000 -0.000000 -0.000000 0.000000 0.000000 0.000000 0.000000 0.000000 0.000000 0.000000 0.000000 0.000000 0.000000 0.000000 0.000000 0.000000 0.000000 0.000000 0.000000 0.000000 0.000000 0.000000 0.000000 0.000000 0.000000 0.000000 0.000000 0.000000 0.000000 0.000000 0.000000 0.000000 0.000000 0.000000 0.000000 0.000000 0.000000 0.000000 0.000000 0.000000 0.000000 0.000000 0.000000 0.000000 0.000000 0.000000 0.000000 0.000000 0.000000 0.000000 0.000000 0.000000 0.000000 0.000000 0.000000 0.000000 0.000000 0.000000 0.000000 0.000000 0.000000 0.000000 0.000000 0.000000 0.000000 0.000000 0.000000 0.000000 0.000000 0.000000 0.000000 0.000000 0.000000 0.000000 0.000000 0.000000 0.000000 0.000000 0.000000 0.000000 0.000000 0.000000 0.000000 0.000000 0.000000 0.000000 0.000000 0.000000 0.000000 0.000000 0.000000 0.000000 0.000000 0.000000 0.000000 0.000000 0.000000 0.000000 0.000000 0.000000 0.000000 0.000000 0.000000 0.000000 0.000000 0.000000 0.000000 0.000000 0.000000 0.000000 0.000000 0.000000 0.000000 0.000000 0.000000 0.000000 0.000000 0.000000 0.000000 0.000000 0.000000 0.000000 0.000000 0.000000 0.000000 0.000000 0.000000 0.000000 0.000000 0.000000 0.000000 0.000000 0.000000 0.000000 0.000000 0.000000 0.000000 0.000000 0.000000 0.000000 0.000000 0.000000 0.000000 0.000000 0.000000 0.000000 -0.000000 0.000000 0.000000 0.000000 0.000000 0.000000 -0.000000 0.000000 0.000000 0.000000 0.000000 0.000000 -0.000000 0.000000 0.000000 0.000000 0.000000 0.000000 -0.000000 0.000000 0.000000 0.000000 0.000000 0.000000 -0.000000 0.000000 0.000000 0.000000 0.000000 0.000000 -0.000000 0.000000 0.000000 0.000000 0.000000 0.000000 -0.000000 0.000000 0.000000 0.000000 0.000000 0.000000 -0.000000 0.000000 0.000000 0.000000 0.000000 0.000000 -0.000000 0.000000 0.000000 0.000000 0.000000 0.000000 -0.000000 0.000000 0.000000 0.000000 0.000000 0.000000 -0.000000 0.000000 0.000000 0.000000 0.000000 0.000000 -0.000000 0.000000 0.000000 0.000000 0.000000 0.000000 -0.000000 0.000000 0.000000 0.000000 0.000000 0.000000 0.000000 0.000000 0.000000 0.000000 0.000000 0.000000 -0.000000 -0.000000 0.000000 -0.000000 -0.000000 -0.000000 -0.000000 -0.000000 -0.000000 -0.000000 -0.000000 -0.000000 -0.000000 -0.000000 -0.000000 -0.000000 -0.000000 -0.000000 -0.000000 -0.000000 -0.000000 -0.000000 -0.000000 -0.000000 -0.000000 -0.000000 -0.000000 -0.000000 -0.000000 -0.000000 -0.000000 -0.000000 -0.000000 -0.000000 -0.000000 -0.000000 -0.000000 -0.000000 -0.000000 -0.000000 -0.000000 -0.000000 -0.000000 -0.000000 -0.000000 -0.000000 -0.000000 -0.000000 -0.000000 -0.000000 -0.000000 -0.000000 -0.000000 -0.000000 -0.000000 -0.000000 -0.000000 -0.000000 -0.000000 -0.000000 -0.000000 -0.000000 -0.000000 -0.000000 -0.000000 -0.000000 -0.000000 -0.000000 -0.000000 -0.000000 -0.000000 -0.000000 -0.000000 -0.000000 -0.000000 -0.000000 -0.000000 -0.000000 -0.000000 -0.000000 -0.000000 -0.000000 -0.000000 -0.000000 -0.000000 -0.000000 -0.000000 -0.000000 -0.000000 -0.000000 -0.000000 -0.000000 -0.000000 -0.000000 -0.000000 -0.000000 -0.000000 -0.000000 -0.000000 -0.000000 -0.000000 -0.000000 -0.000000 -0.000000 -0.000000 -0.000000 -0.000000 -0.000000 -0.000000 -0.000000 -0.000000 -0.000000 -0.000000 -0.000000 -0.000000 -0.000000 -0.000000 -0.000000 -0.000000 -0.000000 -0.000000 -0.000000 -0.000000 -0.000000 -0.000000 -0.000000 -0.000000 -0.000000 -0.000000 -0.000000 -0.000000 -0.000000 -0.000000 -0.000000 -0.000000 -0.000000 -0.000000 -0.000000 -0.000000 -0.000000 -0.000000 -0.000000 -0.000000 -0.000000 -0.000000 -0.000000 -0.000000 -0.000000 -0.000000 -0.000000 -0.000000 -0.000000 -0.000000 -0.000000 -0.000000 -0.000000 -0.000000 -0.000000 -0.000000 -0.000000 -0.000000 -0.000000 -0.000000 -0.000000 -0.000000 -0.000000 -0.000000 -0.000000 -0.000000 -0.000000 -0.000000 -0.000000 -0.000000 -0.000000 -0.000000 -0.000000 -0.000000 -0.000000 -0.000000 -0.000000 -0.000000 -0.000000 -0.000000 -0.000000 -0.000000 -0.000000 -0.000000 -0.000000 -0.000000 -0.000000 -0.000000 -0.000000 -0.000000 -0.000000 -0.000000 -0.000000 -0.000000 -0.000000 -0.000000 -0.000000 -0.000000 -0.000000 -0.000000 -0.000000 -0.000000 -0.000000 -0.000000 -0.000000 -0.000000 -0.000000 -0.000000 -0.000000 -0.000000 -0.000000 -0.000000 -0.000000 -0.000000 -0.000000 -0.000000 -0.000000 -0.000000 -0.000000 -0.000000 -0.000000 -0.000000 -0.000000 -0.000000 -0.000000 -0.000000 -0.000000 -0.000000 -0.000000 -0.000000 -0.000000 -0.000000 -0.000000 -0.000000 -0.000000 -0.000000 -0.000000 -0.000000 -0.000000 -0.000000 -0.000000 -0.000000 -0.000000 -0.000000 -0.000000 -0.000000 -0.000000 -0.000000 -0.000000 -0.000000 -0.000000 -0.000000 -0.000000 -0.000000 -0.000000 -0.000000 -0.000000 -0.000000 -0.000000 -0.000000 -0.000000 -0.000000 -0.000000 -0.000000 -0.000000 -0.000000 -0.000000 -0.000000 -0.000000 -0.000000 -0.000000 -0.000000 -0.000000 -0.000000 -0.000000 -0.000000 -0.000000 -0.000000 -0.000000 -0.000000 -0.000000 -0.000000 -0.000000 -0.000000 -0.000000 -0.000000 -0.000000 -0.000000 -0.000000 -0.000000 -0.000000 -0.000000 -0.000000 -0.000000 -0.000000 -0.000000 -0.000000 -0.000000 -0.000000 -0.000000 -0.000000 -0.000000 -0.000000 -0.000000 -0.000000 -0.000000 -0.000000 -0.000000 -0.000000 -0.000000 -0.000000 -0.000000 -0.000000 -0.000000 -0.000000 -0.000000 -0.000000 -0.000000 -0.000000 -0.000000 -0.000000 -0.000000 -0.000000 -0.000000 -0.000000 -0.000000 -0.000000 -0.000000 -0.000000 -0.000000 -0.000000 -0.000000 -0.000000 -0.000000 -0.000000 -0.000000 -0.000000 -0.000000 -0.000000 -0.000000 -0.000000 -0.000000 -0.000000 -0.000000 -0.000000 -0.000000 -0.000000 -0.000000 -0.000000 -0.000000 -0.000000 -0.000000 -0.000000 -0.000000 -0.000000 -0.000000 -0.000000 -0.000000 -0.000000 -0.000000 -0.000000 -0.000000 -0.000000 -0.000000 -0.000000 -0.000000 -0.000000 -0.000000 -0.000000 -0.000000 -0.000000 -0.000000 -0.000000 -0.000000 -0.000000 -0.000000 -0.000000 -0.000000 -0.000000 -0.000000 -0.000000 -0.000000 -0.000000 -0.000000 -0.000000 -0.000000 -0.000000 -0.000000 -0.000000 -0.000000 -0.000000 -0.000000 -0.000000 -0.000000 -0.000000 -0.000000 -0.000000 -0.000000 -0.000000 -0.000000 -0.000000 -0.000000 -0.000000 -0.000000 -0.000000 -0.000000 -0.000000 -0.000000 -0.000000 -0.000000 -0.000000 -0.000000 -0.000000 -0.000000 -0.000000 -0.000000 -0.000000 -0.000000 -0.000000 -0.000000 -0.000000 -0.000000 -0.000000 -0.000000 -0.000000 -0.000000 -0.000000 -0.000000 -0.000000 -0.000000 -0.000000 -0.000000 -0.000000 -0.000000 -0.000000 -0.000000 -0.000000 -0.000000 -0.000000 -0.000000 -0.000000 -0.000000 -0.000000 -0.000000 -0.000000 -0.000000 -0.000000 -0.000000 -0.000000 -0.000000 -0.000000 -0.000000 -0.000000 -0.000000 -0.000000 -0.000000 -0.000000 -0.000000 -0.000000 -0.000000 -0.000000 -0.000000 -0.000000 -0.000000 -0.000000 -0.000000 -0.000000 -0.000000 -0.000000 -0.000000 -0.000000 -0.000000 -0.000000 -0.000000 -0.000000 -0.000000 -0.000000 -0.000000 -0.000000 -0.000000 -0.000000 -0.000000 -0.000000 -0.000000 -0.000000 -0.000000 -0.000000 -0.000000 -0.000000 -0.000000 -0.000000 -0.000000 -0.000000 -0.000000 -0.000000 -0.000000 -0.000000 -0.000000 -0.000000 -0.000000 -0.000000 -0.000000 -0.000000 -0.000000 -0.000000 -0.000000 -0.000000 -0.000000 -0.000000 -0.000000 -0.000000 -0.000000 -0.000000 -0.000000 -0.000000 -0.000000 -0.000000 -0.000000 -0.000000 -0.000000 -0.000000 -0.000000 -0.000000 -0.000000 -0.000000 -0.000000 -0.000000 -0.000000 -0.000000 -0.000000 -0.000000 -0.000000 -0.000000 -0.000000 -0.000000 -0.000000 -0.000000 -0.000000 -0.000000 -0.000000 -0.000000 -0.000000 -0.000000 -0.000000 -0.000000 -0.000000 -0.000000 -0.000000 -0.000000 -0.000000 -0.000000 -0.000000 -0.000000 -0.000000 -0.000000 -0.000000 -0.000000 -0.000000 -0.000000 -0.000000 -0.000000 -0.000000 -0.000000 -0.000000 -0.000000 -0.000000 -0.000000 -0.000000 -0.000000 -0.000000 -0.000000 -0.000000 -0.000000 -0.000000 -0.000000 -0.000000 -0.000000 -0.000000 -0.000000 -0.000000 -0.000000 -0.000000 -0.000000 -0.000000 -0.000000 -0.000000 -0.000000 -0.000000 -0.000000 -0.000000 -0.000000 -0.000000 -0.000000 -0.000000 -0.000000 -0.000000 -0.000000 -0.000000 -0.000000 -0.000000 -0.000000 -0.000000 -0.000000 -0.000000 -0.000000 -0.000000 -0.000000 -0.000000 -0.000000 -0.000000 -0.000000 -0.000000 -0.000000 -0.000000 -0.000000 -0.000000 -0.000000 -0.000000 -0.000000 -0.000000 -0.000000 -0.000000 -0.000000 -0.000000 -0.000000 -0.000000 -0.000000 -0.000000 -0.000000 -0.000000 -0.000000 -0.000000 -0.000000 -0.000000 -0.000000 -0.000000 -0.000000 -0.000000 -0.000000 -0.000000 -0.000000 -0.000000 -0.000000 -0.000000 -0.000000 -0.000000 -0.000000 -0.000000 -0.000000 -0.000000 -0.000000 -0.000000 -0.000000 -0.000000 -0.000000 -0.000000 -0.000000 -0.000000 -0.000000 -0.000000 -0.000000 -0.000000 -0.000000 -0.000000 -0.000000 -0.000000 -0.000000 -0.000000 -0.000000 -0.000000 -0.000000 -0.000000 -0.000000 -0.000000 -0.000000 -0.000000 -0.000000 -0.000000 -0.000000 -0.000000 -0.000000 -0.000000 -0.000000 -0.000000 -0.000000 -0.000000 -0.000000 -0.000000 -0.000000 -0.000000 -0.000000 -0.000000 -0.000000 -0.000000 -0.000000 -0.000000 -0.000000 -0.000000 -0.000000 -0.000000 -0.000000 -0.000000 -0.000000 -0.000000 -0.000000 -0.000000 -0.000000 -0.000000 -0.000000 -0.000000 -0.000000 -0.000000 -0.000000 -0.000000 -0.000000 -0.000000 -0.000000 -0.000000 -0.000000 -0.000000 -0.000000 -0.000000 -0.000000 -0.000000 0.000000 -0.000000 -0.000000 -0.000000 -0.000000 -0.000000 -0.000000 -0.000000 -0.000000 -0.000000 -0.000000 -0.000000 -0.000000 -0.000000 -0.000000 -0.000000 -0.000000 -0.000000 -0.000000 -0.000000 -0.000000 -0.000000 -0.000000 -0.000000 -0.000000 -0.000000 -0.000000 -0.000000 -0.000000 -0.000000 -0.000000 -0.000000 -0.000000 -0.000000 -0.000000 -0.000000 -0.000000 -0.000000 -0.000000 -0.000000 -0.000000 -0.000000 -0.000000 -0.000000 -0.000000 -0.000000 -0.000000 -0.000000 -0.000000 -0.000000 -0.000000 -0.000000 -0.000000 -0.000000 -0.000000 -0.000000 -0.000000 -0.000000 -0.000000 -0.000000 -0.000000 -0.000000 -0.000000 -0.000000 -0.000000 -0.000000 -0.000000 -0.000000 -0.000000 -0.000000 -0.000000 -0.000000 -0.000000 -0.000000 -0.000000 -0.000000 -0.000000 -0.000000 -0.000000 -0.000000 -0.000000 -0.000000 -0.000000 -0.000000 -0.000000 -0.000000 -0.000000 -0.000000 -0.000000 -0.000000 -0.000000 -0.000000 -0.000000 -0.000000 -0.000000 -0.000000 -0.000000 -0.000000 -0.000000 -0.000000 -0.000000 -0.000000 -0.000000 -0.000000 -0.000000 -0.000000 -0.000000 -0.000000 -0.000000 -0.000000 -0.000000 -0.000000 -0.000000 -0.000000 -0.000000 -0.000000 -0.000000 -0.000000 -0.000000 -0.000000 -0.000000 -0.000000 -0.000000 -0.000000 -0.000000 -0.000000 -0.000000 -0.000000 -0.000000 -0.000000 -0.000000 -0.000000 -0.000000 -0.000000 -0.000000 -0.000000 -0.000000 -0.000000 -0.000000 -0.000000 -0.000000 -0.000000 -0.000000 -0.000000 -0.000000 -0.000000 -0.000000 -0.000000 -0.000000 -0.000000 -0.000000 -0.000000 -0.000000 -0.000000 -0.000000 -0.000000 -0.000000 -0.000000 -0.000000 -0.000000 -0.000000 -0.000000 -0.000000 -0.000000 -0.000000 -0.000000 -0.000000 -0.000000 -0.000000 -0.000000 -0.000000 -0.000000 -0.000000 -0.000000 -0.000000 -0.000000 -0.000000 -0.000000 -0.000000 -0.000000 -0.000000 -0.000000 -0.000000 -0.000000 -0.000000 -0.000000 -0.000000 -0.000000 -0.000000 -0.000000 -0.000000 -0.000000 -0.000000 -0.000000 -0.000000 -0.000000 -0.000000 -0.000000 -0.000000 -0.000000 -0.000000 -0.000000 -0.000000 -0.000000 -0.000000 -0.000000 -0.000000 -0.000000 -0.000000 -0.000000 -0.000000 -0.000000 -0.000000 -0.000000 -0.000000 -0.000000 -0.000000 -0.000000 -0.000000 -0.000000 -0.000000 0.000000 -0.000000 0.000000 -0.000000 -0.000000 -0.000000 -0.000000 0.000000 0.000000 -0.000000 -0.000000 -0.000000 0.000000 -0.000000 0.000000 0.000000 0.000000 0.000000 0.000000 -0.000000 -0.000000 -0.000000 -0.000000 -0.000000 -0.000000 -0.000000 -0.000000 -0.000000 -0.000000 -0.000000 -0.000000 -0.000000 -0.000000 -0.000000 -0.000000 -0.000000 -0.000000 -0.000000 -0.000000 -0.000000 -0.000000 -0.000000 -0.000000 -0.000000 -0.000000 -0.000000 -0.000000 -0.000000 -0.000000 -0.000000 -0.000000 -0.000000 -0.000000 -0.000000 -0.000000 -0.000000 -0.000000 -0.000000 -0.000000 -0.000000 -0.000000 -0.000000 -0.000000 -0.000000 -0.000000 -0.000000 -0.000000 -0.000000 -0.000000 -0.000000 -0.000000 -0.000000 -0.000000 -0.000000 -0.000000 -0.000000 -0.000000 -0.000001 -0.000005 -0.000021 -0.000083 -0.000315 -0.001135 -0.003883 -0.012587 -0.038678 -0.112687 -0.311320 -0.815575 -2.025413 -4.763751 -10.588540 -22.146167 -43.236436 -77.668710 -125.063246 -171.185366 -172.136728 -38.176817 403.331918 1136.674261 1036.945037 1968.109522 4061.265441 5770.576449 7067.212215 8675.496575 10434.037004 12105.775643 13753.288890 15328.671060 16800.128011 18170.452853 19399.618858 20463.890868 22518.366499 24565.501729 27804.815781 32289.068553 26848.973248 25768.602338 25612.876560 9041.711153 5345.005883 5345.005883 5345.005883 0.000000 0.000000 0.000000 0.000000 -0.000000 -0.000000 -0.000000 -0.000000 -0.000000 -0.000000 -0.000000 -0.000000 -0.000000 -0.000000 -0.000000 -0.000000 -0.000000 -0.000000 -0.000000 -0.000000 -0.000000 -0.000000 -0.000000 -0.000000 -0.000000 -0.000000 -0.000000 -0.000000 -0.000000 -0.000000 -0.000000 -0.000000 -0.000000 -0.000000 -0.000000 -0.000000 -0.000000 -0.000000 -0.000000 -0.000000 -0.000000 -0.000000 -0.000000 -0.000000 -0.000000 -0.000000 -0.000000 -0.000000 -0.000000 -0.000000 -0.000000 -0.000000 -0.000000 -0.000000 -0.000000 -0.000000 -0.000000 -0.000000 -0.000000 -0.000000 -0.000000 -0.000000 -0.000001 -0.000006 -0.000025 -0.000100 -0.000374 -0.001329 -0.004470 -0.014243 -0.042995 -0.122979 -0.333275 -0.855533 -2.079124 -4.777435 -10.354568 -21.075169 -39.970024 -69.692321 -109.094253 -146.367872 -149.874385 -64.570716 153.509102 366.395981 334.661806 1046.843213 2283.929954 3241.129317 4020.935924 4895.056978 5825.843567 6757.113605 7694.258378 8620.075558 9509.009753 10343.295154 11115.412758 11856.966809 13160.395927 15152.733683 19783.166341 25546.498350 22297.708164 25354.708543 18140.775957 5243.016578 3284.697737 3284.697737 3284.697737 0.000000 0.000000 0.000000 0.000000 0.000000 0.000000 0.000000 0.000000 -0.000000 0.000000 0.000000 0.000000 0.000000 0.000000 -0.000000 -0.000000 -0.000000 -0.000000 -0.000000 -0.000000 -0.000000 -0.000000 -0.000000 -0.000000 -0.000000 -0.000000 -0.000000 -0.000000 -0.000000 -0.000000 -0.000000 -0.000000 -0.000000 -0.000000 -0.000000 -0.000000 -0.000000 -0.000000 -0.000000 -0.000000 -0.000000 -0.000000 -0.000000 -0.000000 -0.000000 -0.000000 -0.000000 -0.000000 -0.000000 -0.000000 -0.000000 -0.000000 -0.000000 -0.000000 -0.000000 -0.000000 -0.000000 -0.000000 -0.000000 -0.000000 -0.000000 -0.000000 -0.000002 -0.000008 -0.000032 -0.000124 -0.000458 -0.001597 -0.005277 -0.016510 -0.048918 -0.137248 -0.364536 -0.916076 -2.175975 -4.877070 -10.284281 -20.304610 -37.240391 -62.653797 -94.696125 -123.840307 -129.034810 -79.983040 46.335883 242.331581 499.993723 860.453522 1310.714642 1774.231047 2221.370107 2665.682097 3113.521633 3560.707967 4004.720535 4442.781131 4870.260704 5282.737734 5679.542015 6075.865796 6503.742667 7011.876459 7691.155772 8317.176947 7933.641442 7637.630463 4954.363790 2415.354257 1973.923973 1973.923973 1973.923973 -0.000000 -0.000000 -0.000000 -0.000000 -0.000000 0.000000 0.000000 -0.000000 -0.000000 0.000000 0.000000 0.000000 0.000000 0.000000 -0.000000 -0.000000 -0.000000 -0.000000 -0.000000 -0.000000 -0.000000 -0.000000 -0.000000 -0.000000 -0.000000 -0.000000 -0.000000 -0.000000 -0.000000 -0.000000 -0.000000 -0.000000 -0.000000 -0.000000 -0.000000 -0.000000 -0.000000 -0.000000 -0.000000 -0.000000 -0.000000 -0.000000 -0.000000 -0.000000 -0.000000 -0.000000 -0.000000 -0.000000 -0.000000 -0.000000 -0.000000 -0.000000 -0.000000 -0.000000 -0.000000 -0.000000 -0.000000 -0.000000 -0.000000 -0.000000 -0.000000 -0.000000 -0.000002 -0.000008 -0.000033 -0.000129 -0.000475 -0.001651 -0.005437 -0.016958 -0.050087 -0.140077 -0.370798 -0.928495 -2.197021 -4.903538 -10.291609 -20.211675 -36.849529 -61.592111 -92.477022 -120.329070 -125.681052 -81.391848 34.554011 224.299548 480.672923 807.269396 1189.092948 1588.706506 1984.891892 2377.202576 2767.642959 3154.945201 3537.470054 3913.499400 4280.775342 4637.178273 4982.466007 5321.976339 5666.399605 6024.330059 6366.726297 6515.709171 6234.778958 5340.096973 3634.406320 2100.401804 1783.517130 1783.517130 1783.517130 -0.000000 -0.000000 -0.000000 -0.000000 -0.000000 0.000000 0.000000 -0.000000 0.000000 0.000000 0.000000 0.000000 0.000000 0.000000 -0.000000 -0.000000 -0.000000 -0.000000 -0.000000 -0.000000 -0.000000 -0.000000 -0.000000 -0.000000 -0.000000 -0.000000 -0.000000 -0.000000 -0.000000 -0.000000 -0.000000 -0.000000 -0.000000 -0.000000 -0.000000 -0.000000 -0.000000 -0.000000 -0.000000 -0.000000 -0.000000 -0.000000 -0.000000 -0.000000 -0.000000 -0.000000 -0.000000 -0.000000 -0.000000 -0.000000 -0.000000 -0.000000 -0.000000 -0.000000 -0.000000 -0.000000 -0.000000 -0.000000 -0.000000 -0.000000 -0.000000 -0.000000 -0.000002 -0.000008 -0.000033 -0.000129 -0.000475 -0.001651 -0.005437 -0.016958 -0.050087 -0.140077 -0.370798 -0.928495 -2.197021 -4.903538 -10.291609 -20.211675 -36.849529 -61.592111 -92.477022 -120.329070 -125.681052 -81.391848 34.554011 224.299548 480.672923 807.269396 1189.092948 1588.706506 1984.891892 2377.202576 2767.642959 3154.945201 3537.470054 3913.499400 4280.775342 4637.178273 4982.466007 5321.976339 5666.399605 6024.330059 6366.726297 6515.709171 6234.778958 5340.096973 3634.406320 2100.401804 1783.517130 1783.517130 1783.517130 -0.000000 -0.000000 -0.000000 -0.000000 -0.000000 0.000000 0.000000 -0.000000 0.000000 0.000000 0.000000 0.000000 0.000000 0.000000 -0.000000 -0.000000 -0.000000 -0.000000 -0.000000 -0.000000 -0.000000 -0.000000 -0.000000 -0.000000 -0.000000 -0.000000 -0.000000 -0.000000 -0.000000 -0.000000 -0.000000 -0.000000 -0.000000 -0.000000 -0.000000 -0.000000 -0.000000 -0.000000 -0.000000 -0.000000 -0.000000 -0.000000 -0.000000 -0.000000 -0.000000 -0.000000 -0.000000 -0.000000 -0.000000 -0.000000 -0.000000 -0.000000 -0.000000 -0.000000 -0.000000 -0.000000 -0.000000 -0.000000 -0.000000 -0.000000 -0.000000 -0.000000 -0.000002 -0.000008 -0.000033 -0.000129 -0.000475 -0.001651 -0.005437 -0.016958 -0.050087 -0.140077 -0.370798 -0.928495 -2.197021 -4.903538 -10.291609 -20.211675 -36.849529 -61.592111 -92.477022 -120.329070 -125.681052 -81.391848 34.554011 224.299548 480.672923 807.269396 1189.092948 1588.706506 1984.891892 2377.202576 2767.642959 3154.945201 3537.470054 3913.499400 4280.775342 4637.178273 4982.466007 5321.976339 5666.399605 6024.330059 6366.726297 6515.709171 6234.778958 5340.096973 3634.406320 2100.401804 1783.517130 1783.517130 1783.517130 -5905.535981 -2643.822021 -2278.392575 -5358.813313 1698.565604 -571.924353 -236.932289 387.964219 250.866765 413.730583 551.674287 824.361355 1169.481047 1622.181781 2173.502640 2812.232004 3507.787919 4219.489043 4904.415124 5533.304556 6103.819891 6643.188293 7195.544591 7799.230401 8466.300949 9178.544493 9899.698260 10595.164145 11247.940233 11861.976633 12448.089838 13015.067571 13558.324171 14061.101946 14521.900186 14955.355549 15389.922382 15821.489954 16261.126095 16718.425698 17281.680298 18033.479879 18979.199139 20143.508732 21004.162329 22109.577796 20887.078185 22775.538294 23606.146245 28821.981916 20568.568094 7553.091340 4835.767723 4293.813514 4293.813514 4293.813514 4438.227655 1897.292619 -1822.547696 512.751827 597.120961 401.416167 803.901950 1180.423871 1756.018373 2517.716138 3539.562293 4800.269731 6278.288876 7896.575362 9545.817306 11094.932221 12435.447170 13521.974836 14391.815698 15141.787425 15874.455100 16644.120425 17437.694845 18200.105364 18883.073048 19485.380693 20059.195494 20671.398149 21358.107055 22111.633597 22900.359935 23699.711092 24510.495273 25336.550542 26191.537547 27019.184627 27755.966033 28396.806280 28945.790616 29672.550276 30584.598729 31771.225008 32974.040331 33081.346216 34571.951044 30887.604428 30405.803291 38077.108500 45267.158791 35179.029880 33260.081561 11971.307133 6045.819663 5495.731093 5495.731093 5495.731093 597.218282 -234.957544 677.633318 1070.048147 758.076076 1191.806385 1664.389523 2076.557826 2817.661743 3762.032694 5026.878357 6560.365610 8346.641150 10285.307244 12254.798783 14115.651883 15765.031227 17170.935917 18381.905075 19494.326630 20597.549345 21729.122583 22864.608543 23950.777280 24957.078324 25904.401184 26848.341088 27830.890390 28842.273677 29834.277058 30759.015359 31616.253464 32465.656176 33325.490708 34221.069528 35086.577623 35860.744112 36640.259809 37388.539807 38434.877607 39669.521683 41061.253166 42614.282600 42340.048249 44095.422340 42382.290054 38874.723516 49393.202989 41464.329681 37234.818330 40425.167908 29243.166222 9398.632964 6850.388756 6850.388756 6850.388756 -168.121335 50.437544 400.458805 648.753991 872.164696 1287.781849 1533.354164 1991.254446 2661.790649 3509.478091 4624.739444 5946.145482 7452.263661 9044.770053 10630.656814 12120.250869 13474.796482 14715.494885 15909.951353 17130.866124 18415.224526 19748.411998 21082.212833 22372.883082 23610.674195 24818.920842 26026.290324 27236.215795 28419.635600 29549.452634 30625.520422 31679.888396 32778.379785 33892.368912 35012.729097 36068.805566 36969.573665 37950.284666 38869.812002 40192.789968 41700.590206 43442.832877 45367.827383 46126.767555 46680.244932 47986.283124 44031.031778 46192.862953 44505.965308 39633.117720 40811.079591 25611.722061 9627.206575 7612.010729 7612.010729 7612.010729 190.822445 225.416669 479.167966 653.764265 773.314682 1069.214053 1385.596071 1937.718627 2632.978440 3576.639802 4777.722125 6199.594255 7806.835697 9496.987838 11170.637227 12732.381201 14137.453216 15396.355108 16559.587102 17678.815293 18775.025636 19833.689771 20829.618590 21761.643440 22667.887260 23606.953589 24620.762243 25709.054588 26834.759063 27969.419365 29112.289029 30277.069653 31506.615395 32730.549954 33919.598248 35040.055124 35954.749607 37000.429888 37938.732674 39279.664781 40788.033498 42473.816378 44354.812990 45494.602912 46223.163638 46636.794811 46262.698477 44400.423544 50704.546203 53378.816946 44727.353948 13390.667175 8662.362162 7984.128094 7984.128094 7984.128094 108.893178 218.699123 289.163281 419.649784 687.970072 932.059218 1293.765346 1838.789809 2552.058823 3528.330801 4728.948228 6143.018013 7708.312845 9323.875426 10891.527226 12331.810295 13625.270108 14810.738846 15960.955407 17137.079657 18355.848390 19588.395707 20791.151481 21944.968893 23070.557342 24206.370564 25369.947520 26537.072581 27655.069082 28696.897720 2