<VTKFile type="PolyData">
<PolyData>
<Piece NumberOfPoints="8632" NumberOfVerts="8632" NumberOfLines="0" NumberOfStrips="0" NumberOfPolys="0">
<PointData>
<DataArray type="Float64" Name="Pressure" format="ascii">
 -0.000000 -0.000000 -0.000000 -0.000000 -0.000000 -0.000000 -0.000000 0.000000 0.000000 0.000000 0.000000 0.000000 0.000000 0.000000 0.000000 0.000000 -0.000000 -0.000000 -0.000000 -0.000000 -0.000001 -0.000002 -0.000006 -0.000016 -0.000042 -0.000106 -0.000260 -0.000625 -0.001463 -0.003338 -0.007420 -0.016080 -0.033970 -0.069976 -0.140597 -0.275623 -0.527416 -0.985593 -1.799634 -3.212595 -5.609712 -9.585465 -16.030684 -26.235416 -41.991079 -65.654897 -100.112459 -148.550028 -213.947014 -298.244779 -401.245284 -519.389475 -644.522178 -762.386973 -849.802895 -870.914292 -781.762182 -570.923527 -320.200870 -107.416655 135.020220 402.867150 603.652786 800.703786 1041.476086 1280.474176 1500.353653 1718.615190 1955.059459 2203.304504 2454.994166 2716.961958 2990.614779 3271.779110 3558.746531 3851.045701 4148.236174 4450.025184 4756.101684 5066.097478 5379.777442 5696.882621 6016.863214 6338.666421 6661.138978 6984.449838 7311.854960 7649.872809 8005.283494 8380.351458 8770.459754 9166.438919 9560.218922 9948.381399 10330.022949 10700.065419 11043.814172 11342.180311 11576.664701 11730.809576 11791.425227 11721.587542 11482.085622 11037.673125 10359.679050 9473.823045 8459.720937 7720.062675 7576.602272 7576.602272 7576.602272 -0.000000 -0.000000 -0.000000 -0.000000 -0.000000 -0.000000 -0.000000 0.000000 0.000000 0.000000 0.000000 0.000000 0.000000 0.000000 0.000000 0.000000 -0.000000 -0.000000 -0.000000 -0.000000 -0.000001 -0.000002 -0.000006 -0.000016 -0.000042 -0.000106 -0.000260 -0.000625 -0.001463 -0.003338 -0.007420 -0.016080 -0.033970 -0.069976 -0.140597 -0.275623 -0.527416 -0.985593 -1.799634 -3.212595 -5.609712 -9.585465 -16.030684 -26.235416 -41.991079 -65.654897 -100.112459 -148.550028 -213.947014 -298.244779 -401.245284 -519.389475 -644.522178 -762.386973 -849.802895 -870.914292 -781.762182 -570.923527 -320.200870 -107.416655 135.020220 402.867150 603.652786 800.703786 1041.476086 1280.474176 1500.353653 1718.615190 1955.059459 2203.304504 2454.994166 2716.961958 2990.614779 3271.779110 3558.746531 3851.045701 4148.236174 4450.025184 4756.101684 5066.097478 5379.777442 5696.882621 6016.863214 6338.666421 6661.138978 6984.449838 7311.854960 7649.872809 8005.283494 8380.351458 8770.459754 9166.438919 9560.218922 9948.381399 10330.022949 10700.065419 11043.814172 11342.180311 11576.664701 11730.809576 11791.425227 11721.587542 11482.085622 11037.673125 10359.679050 9473.823045 8459.720937 7720.062675 7576.602272 7576.602272 7576.602272 -0.000000 -0.000000 -0.000000 -0.000000 -0.000000 -0.000000 -0.000000 0.000000 0.000000 0.000000 0.000000 0.000000 0.000000 0.000000 0.000000 0.000000 -0.000000 -0.000000 -0.000000 -0.000000 -0.000001 -0.000002 -0.000006 -0.000016 -0.000042 -0.000106 -0.000260 -0.000625 -0.001463 -0.003338 -0.007420 -0.016080 -0.033970 -0.069976 -0.140597 -0.275623 -0.527416 -0.985593 -1.799634 -3.212595 -5.609712 -9.585465 -16.030684 -26.235416 -41.991079 -65.654897 -100.112459 -148.550028 -213.947014 -298.244779 -401.245284 -519.389475 -644.522178 -762.386973 -849.802895 -870.914292 -781.762182 -570.923527 -320.200870 -107.416655 135.020220 402.867150 603.652786 800.703786 1041.476086 1280.474176 1500.353653 1718.615190 1955.059459 2203.304504 2454.994166 2716.961958 2990.614779 3271.779110 3558.746531 3851.045701 4148.236174 4450.025184 4756.101684 5066.097478 5379.777442 5696.882621 6016.863214 6338.666421 6661.138978 6984.449838 7311.854960 7649.872809 8005.283494 8380.351458 8770.459754 9166.438919 9560.218922 9948.381399 10330.022949 10700.065419 11043.814172 11342.180311 11576.664701 11730.809576 11791.425227 11721.587542 11482.085622 11037.673125 10359.679050 9473.823045 8459.720937 7720.062675 7576.602272 7576.602272 7576.602272 -0.000000 -0.000000 -0.000000 -0.000000 -0.000000 -0.000000 -0.000000 0.000000 0.000000 0.000000 0.000000 0.000000 0.000000 0.000000 0.000000 0.000000 -0.000000 -0.000000 -0.000000 -0.000000 -0.000001 -0.000002 -0.000006 -0.000016 -0.000041 -0.000105 -0.000258 -0.000620 -0.001451 -0.003311 -0.007364 -0.015965 -0.033742 -0.069537 -0.139772 -0.274117 -0.524733 -0.980938 -1.791754 -3.199586 -5.588772 -9.552646 -15.980750 -26.162045 -41.887873 -65.517965 -99.945761 -148.375329 -213.821948 -298.297414 -401.747440 -520.925800 -648.384896 -771.431415 -869.070313 -905.712417 -823.655772 -587.212263 -308.339749 -131.501115 106.252036 410.043949 580.706551 761.724911 1017.726539 1253.881745 1456.833246 1659.999003 1892.436836 2140.024884 2383.967605 2641.794246 2914.914535 3195.393976 3482.333509 3775.957202 4076.084988 4382.327072 4693.462922 5007.373110 5322.274027 5637.669057 5954.530711 6274.375580 6598.034879 6925.660430 7259.038488 7603.826788 7967.447052 8352.637862 8753.056357 9155.286241 9547.539960 9927.870614 10298.962491 10664.558289 11009.916944 11314.282626 11558.800487 11719.376255 11796.399327 11747.494507 11529.409237 11112.655525 10451.790404 9568.607644 8566.672675 7841.250901 7708.278503 7708.278503 7708.278503 -0.000000 -0.000000 -0.000000 -0.000000 -0.000000 -0.000000 -0.000000 0.000000 0.000000 0.000000 0.000000 0.000000 0.000000 0.000000 0.000000 0.000000 -0.000000 -0.000000 -0.000000 -0.000000 -0.000001 -0.000002 -0.000005 -0.000014 -0.000037 -0.000094 -0.000234 -0.000564 -0.001329 -0.003047 -0.006811 -0.014836 -0.031502 -0.065212 -0.131646 -0.259247 -0.498229 -0.934888 -1.713733 -3.070652 -5.381019 -9.226688 -15.484191 -25.431329 -40.858066 -64.148108 -98.271560 -146.607436 -212.523778 -298.723544 -406.559351 -535.853352 -686.231734 -861.236962 -1078.273698 -1323.060252 -1449.971203 -857.232233 201.877234 -574.747074 -570.434839 1002.089264 285.205727 201.033115 693.710818 1049.293628 904.323447 865.652308 1119.440430 1419.821714 1550.564572 1782.870214 2077.647718 2349.126897 2621.311244 2902.563365 3205.422098 3542.772442 3914.232830 4293.834485 4641.602194 4939.278888 5199.887602 5476.193327 5826.741931 6276.154222 6796.651857 7331.360183 7840.433912 8312.569017 8745.609027 9120.287532 9404.870490 9607.332434 9793.068229 10028.179089 10406.735274 10798.981375 11264.473829 11454.922361 11733.685390 11809.601886 11683.579998 11508.646842 10949.966198 9957.756557 9361.883417 9187.231894 9153.774887 9153.774887 9153.774887 -0.000000 -0.000000 -0.000000 -0.000000 -0.000000 -0.000000 -0.000000 0.000000 0.000000 0.000000 0.000000 0.000000 0.000000 0.000000 0.000000 0.000000 -0.000000 -0.000000 -0.000000 -0.000000 -0.000001 -0.000002 -0.000005 -0.000012 -0.000033 -0.000084 -0.000209 -0.000507 -0.001201 -0.002770 -0.006225 -0.013635 -0.029106 -0.060563 -0.122868 -0.243117 -0.469365 -0.884562 -1.628200 -2.928919 -5.152137 -8.866996 -14.935826 -24.624960 -39.725669 -62.656019 -96.490540 -144.847683 -211.589039 -300.412614 -414.751704 -559.070675 -744.034556 -1001.249653 -1426.701412 -1930.683809 -2624.640166 -1738.596315 1195.154610 -1686.646354 -2612.602294 1668.544522 -2093.441638 -1100.342700 594.582260 1529.606250 -683.894592 -151.715941 -430.571166 680.190748 264.640620 604.523546 1175.447542 1453.007330 1682.779226 1859.072264 2010.483367 2225.093087 2576.621196 3049.938098 3527.283398 3866.850831 4067.222374 4282.141029 4747.598229 5643.723624 6847.805285 8054.194128 8860.594474 9143.619391 9063.337509 8953.970310 8782.402751 8803.692455 8673.342457 8692.242412 9391.313962 9763.789907 11072.636437 10766.220389 10706.001029 10764.741896 9987.442686 9028.696571 8968.251088 8273.217075 9252.309719 10950.176342 11233.533072 11233.533072 11233.533072 -0.000000 -0.000000 -0.000000 -0.000000 -0.000000 -0.000000 -0.000000 -0.000000 -0.000000 -0.000000 -0.000000 -0.000000 -0.000000 -0.000000 -0.000000 -0.000000 0.000000 0.000000 0.000000 0.000000 0.000000 0.000000 0.000000 0.000000 0.000000 0.000000 0.000000 0.000000 0.000000 0.000000 0.000000 0.000000 0.000000 0.000000 0.000000 0.000000 0.000000 0.000000 0.000000 0.000000 0.000000 0.000000 0.000000 0.000000 0.000000 0.000000 0.000000 0.000000 0.000000 0.000000 0.000000 0.000000 0.000000 0.000000 0.000000 0.000000 0.000000 0.000000 0.000000 0.000000 0.000000 0.000000 0.000000 0.000000 0.000000 0.000000 0.000000 0.000000 0.000000 0.000000 0.000000 0.000000 0.000000 0.000000 0.000000 0.000000 0.000000 0.000000 0.000000 0.000000 0.000000 0.000000 0.000000 0.000000 0.000000 0.000000 0.000000 0.000000 0.000000 0.000000 0.000000 0.000000 0.000000 0.000000 0.000000 0.000000 0.000000 0.000000 0.000000 0.000000 0.000000 0.000000 0.000000 0.000000 0.000000 0.000000 0.000000 0.000000 0.000000 0.000000 0.000000 0.000000 0.000000 0.000000 0.000000 0.000000 0.000000 0.000000 0.000000 0.000000 0.000000 0.000000 0.000000 0.000000 0.000000 0.000000 0.000000 0.000000 0.000000 0.000000 0.000000 0.000000 0.000000 0.000000 0.000000 0.000000 0.000000 0.000000 0.000000 0.000000 0.000000 0.000000 0.000000 0.000000 0.000000 0.000000 0.000000 0.000000 0.000000 0.000000 0.000000 0.000000 0.000000 -0.000000 0.000000 0.000000 0.000000 0.000000 0.000000 -0.000000 0.000000 0.000000 0.000000 0.000000 0.000000 -0.000000 0.000000 0.000000 0.000000 0.000000 0.000000 -0.000000 0.000000 0.000000 0.000000 0.000000 0.000000 -0.000000 0.000000 0.000000 0.000000 0.000000 0.000000 -0.000000 0.000000 0.000000 0.000000 0.000000 0.000000 -0.000000 0.000000 0.000000 0.000000 0.000000 0.000000 -0.000000 0.000000 0.000000 0.000000 0.000000 0.000000 -0.000000 0.000000 0.000000 0.000000 0.000000 0.000000 -0.000000 0.000000 0.000000 0.000000 0.000000 0.000000 -0.000000 0.000000 0.000000 0.000000 0.000000 0.000000 -0.000000 0.000000 0.000000 0.000000 0.000000 0.000000 -0.000000 0.000000 0.000000 0.000000 0.000000 0.000000 0.000000 0.000000 0.000000 0.000000 0.000000 0.000000 -0.000000 -0.000000 0.000000 -0.000000 -0.000000 -0.000000 -0.000000 -0.000000 -0.000000 -0.000000 -0.000000 -0.000000 -0.000000 -0.000000 -0.000000 -0.000000 -0.000000 -0.000000 -0.000000 -0.000000 -0.000000 -0.000000 -0.000000 -0.000000 -0.000000 -0.000000 -0.000000 -0.000000 -0.000000 -0.000000 -0.000000 -0.000000 -0.000000 -0.000000 -0.000000 -0.000000 -0.000000 -0.000000 -0.000000 -0.000000 -0.000000 -0.000000 -0.000000 -0.000000 -0.000000 -0.000000 -0.000000 -0.000000 -0.000000 -0.000000 -0.000000 -0.000000 -0.000000 -0.000000 -0.000000 -0.000000 -0.000000 -0.000000 -0.000000 -0.000000 -0.000000 -0.000000 -0.000000 -0.000000 -0.000000 -0.000000 -0.000000 -0.000000 -0.000000 -0.000000 -0.000000 -0.000000 -0.000000 -0.000000 -0.000000 -0.000000 -0.000000 -0.000000 -0.000000 -0.000000 -0.000000 -0.000000 -0.000000 -0.000000 -0.000000 -0.000000 -0.000000 -0.000000 -0.000000 -0.000000 -0.000000 -0.000000 -0.000000 -0.000000 -0.000000 -0.000000 -0.000000 -0.000000 -0.000000 -0.000000 -0.000000 -0.000000 -0.000000 -0.000000 -0.000000 -0.000000 -0.000000 -0.000000 -0.000000 -0.000000 -0.000000 -0.000000 -0.000000 -0.000000 -0.000000 -0.000000 -0.000000 -0.000000 -0.000000 -0.000000 -0.000000 -0.000000 -0.000000 -0.000000 -0.000000 -0.000000 -0.000000 -0.000000 -0.000000 -0.000000 -0.000000 -0.000000 -0.000000 -0.000000 -0.000000 -0.000000 -0.000000 -0.000000 -0.000000 -0.000000 -0.000000 -0.000000 -0.000000 -0.000000 -0.000000 -0.000000 -0.000000 -0.000000 -0.000000 -0.000000 -0.000000 -0.000000 -0.000000 -0.000000 -0.000000 -0.000000 -0.000000 -0.000000 -0.000000 -0.000000 -0.000000 -0.000000 -0.000000 -0.000000 -0.000000 -0.000000 -0.000000 -0.000000 -0.000000 -0.000000 -0.000000 -0.000000 -0.000000 -0.000000 -0.000000 -0.000000 -0.000000 -0.000000 -0.000000 -0.000000 -0.000000 -0.000000 -0.000000 -0.000000 -0.000000 -0.000000 -0.000000 -0.000000 -0.000000 -0.000000 -0.000000 -0.000000 -0.000000 -0.000000 -0.000000 -0.000000 -0.000000 -0.000000 -0.000000 -0.000000 -0.000000 -0.000000 -0.000000 -0.000000 -0.000000 -0.000000 -0.000000 -0.000000 -0.000000 -0.000000 -0.000000 -0.000000 -0.000000 -0.000000 -0.000000 -0.000000 -0.000000 -0.000000 -0.000000 -0.000000 -0.000000 -0.000000 -0.000000 -0.000000 -0.000000 -0.000000 -0.000000 -0.000000 -0.000000 -0.000000 -0.000000 -0.000000 -0.000000 -0.000000 -0.000000 -0.000000 -0.000000 -0.000000 -0.000000 -0.000000 -0.000000 -0.000000 -0.000000 -0.000000 -0.000000 -0.000000 -0.000000 -0.000000 -0.000000 -0.000000 -0.000000 -0.000000 -0.000000 -0.000000 -0.000000 -0.000000 -0.000000 -0.000000 -0.000000 -0.000000 -0.000000 -0.000000 -0.000000 -0.000000 -0.000000 -0.000000 -0.000000 -0.000000 -0.000000 -0.000000 -0.000000 -0.000000 -0.000000 -0.000000 -0.000000 -0.000000 -0.000000 -0.000000 -0.000000 -0.000000 -0.000000 -0.000000 -0.000000 -0.000000 -0.000000 -0.000000 -0.000000 -0.000000 -0.000000 -0.000000 -0.000000 -0.000000 -0.000000 -0.000000 -0.000000 -0.000000 -0.000000 -0.000000 -0.000000 -0.000000 -0.000000 -0.000000 -0.000000 -0.000000 -0.000000 -0.000000 -0.000000 -0.000000 -0.000000 -0.000000 -0.000000 -0.000000 -0.000000 -0.000000 -0.000000 -0.000000 -0.000000 -0.000000 -0.000000 -0.000000 -0.000000 -0.000000 -0.000000 -0.000000 -0.000000 -0.000000 -0.000000 -0.000000 -0.000000 -0.000000 -0.000000 -0.000000 -0.000000 -0.000000 -0.000000 -0.000000 -0.000000 -0.000000 -0.000000 -0.000000 -0.000000 -0.000000 -0.000000 -0.000000 -0.000000 -0.000000 -0.000000 -0.000000 -0.000000 -0.000000 -0.000000 -0.000000 -0.000000 -0.000000 -0.000000 -0.000000 -0.000000 -0.000000 -0.000000 -0.000000 -0.000000 -0.000000 -0.000000 -0.000000 -0.000000 -0.000000 -0.000000 -0.000000 -0.000000 -0.000000 -0.000000 -0.000000 -0.000000 -0.000000 -0.000000 -0.000000 -0.000000 -0.000000 -0.000000 -0.000000 -0.000000 -0.000000 -0.000000 -0.000000 -0.000000 -0.000000 -0.000000 -0.000000 -0.000000 -0.000000 -0.000000 -0.000000 -0.000000 -0.000000 -0.000000 -0.000000 -0.000000 -0.000000 -0.000000 -0.000000 -0.000000 -0.000000 -0.000000 -0.000000 -0.000000 -0.000000 -0.000000 -0.000000 -0.000000 -0.000000 -0.000000 -0.000000 -0.000000 -0.000000 -0.000000 -0.000000 -0.000000 -0.000000 -0.000000 -0.000000 -0.000000 -0.000000 -0.000000 -0.000000 -0.000000 -0.000000 -0.000000 -0.000000 -0.000000 -0.000000 -0.000000 -0.000000 -0.000000 -0.000000 -0.000000 -0.000000 -0.000000 -0.000000 -0.000000 -0.000000 -0.000000 -0.000000 -0.000000 -0.000000 -0.000000 -0.000000 -0.000000 -0.000000 -0.000000 -0.000000 -0.000000 -0.000000 -0.000000 -0.000000 -0.000000 -0.000000 -0.000000 -0.000000 -0.000000 -0.000000 -0.000000 -0.000000 -0.000000 -0.000000 -0.000000 -0.000000 -0.000000 -0.000000 -0.000000 -0.000000 -0.000000 -0.000000 -0.000000 -0.000000 -0.000000 -0.000000 -0.000000 -0.000000 -0.000000 -0.000000 -0.000000 -0.000000 -0.000000 -0.000000 -0.000000 -0.000000 -0.000000 -0.000000 -0.000000 -0.000000 -0.000000 -0.000000 -0.000000 -0.000000 -0.000000 -0.000000 -0.000000 -0.000000 -0.000000 -0.000000 -0.000000 -0.000000 -0.000000 -0.000000 -0.000000 -0.000000 -0.000000 -0.000000 -0.000000 -0.000000 -0.000000 -0.000000 -0.000000 -0.000000 -0.000000 -0.000000 -0.000000 -0.000000 -0.000000 -0.000000 -0.000000 -0.000000 -0.000000 -0.000000 -0.000000 -0.000000 -0.000000 -0.000000 -0.000000 -0.000000 -0.000000 -0.000000 -0.000000 -0.000000 -0.000000 -0.000000 -0.000000 -0.000000 -0.000000 -0.000000 -0.000000 -0.000000 -0.000000 -0.000000 -0.000000 -0.000000 -0.000000 -0.000000 -0.000000 -0.000000 -0.000000 -0.000000 -0.000000 -0.000000 -0.000000 -0.000000 -0.000000 -0.000000 -0.000000 -0.000000 -0.000000 -0.000000 -0.000000 -0.000000 -0.000000 -0.000000 -0.000000 -0.000000 -0.000000 -0.000000 -0.000000 -0.000000 -0.000000 -0.000000 -0.000000 -0.000000 -0.000000 -0.000000 -0.000000 -0.000000 -0.000000 -0.000000 -0.000000 -0.000000 -0.000000 -0.000000 -0.000000 -0.000000 -0.000000 -0.000000 -0.000000 -0.000000 -0.000000 -0.000000 -0.000000 -0.000000 -0.000000 -0.000000 -0.000000 -0.000000 -0.000000 -0.000000 -0.000000 -0.000000 -0.000000 -0.000000 -0.000000 -0.000000 -0.000000 -0.000000 -0.000000 -0.000000 -0.000000 -0.000000 -0.000000 -0.000000 -0.000000 -0.000000 -0.000000 -0.000000 -0.000000 -0.000000 -0.000000 -0.000000 -0.000000 -0.000000 -0.000000 -0.000000 -0.000000 -0.000000 -0.000000 -0.000000 -0.000000 -0.000000 -0.000000 -0.000000 -0.000000 -0.000000 -0.000000 -0.000000 -0.000000 -0.000000 -0.000000 -0.000000 -0.000000 -0.000000 -0.000000 -0.000000 -0.000000 -0.000000 -0.000000 -0.000000 -0.000000 -0.000000 -0.000000 -0.000000 -0.000000 -0.000000 -0.000000 -0.000000 -0.000000 -0.000000 -0.000000 -0.000000 -0.000000 -0.000000 -0.000000 -0.000000 -0.000000 -0.000000 -0.000000 -0.000000 -0.000000 -0.000000 -0.000000 -0.000000 -0.000000 -0.000000 -0.000000 -0.000000 -0.000000 -0.000000 -0.000000 -0.000000 -0.000000 -0.000000 -0.000000 -0.000000 -0.000000 -0.000000 -0.000000 -0.000000 -0.000000 -0.000000 -0.000000 -0.000000 -0.000000 -0.000000 -0.000000 -0.000000 -0.000000 -0.000000 -0.000000 -0.000000 -0.000000 -0.000000 -0.000000 -0.000000 -0.000000 -0.000000 -0.000000 -0.000000 -0.000000 -0.000000 -0.000000 -0.000000 -0.000000 -0.000000 -0.000000 -0.000000 -0.000000 -0.000000 -0.000000 -0.000000 -0.000000 -0.000000 -0.000000 0.000000 -0.000000 -0.000000 -0.000000 -0.000000 -0.000000 -0.000000 -0.000000 -0.000000 -0.000000 -0.000000 -0.000000 -0.000000 -0.000000 -0.000000 -0.000000 -0.000000 -0.000000 -0.000000 -0.000000 -0.000000 -0.000000 -0.000000 -0.000000 -0.000000 -0.000000 -0.000000 -0.000000 -0.000000 -0.000000 -0.000000 -0.000000 -0.000000 -0.000000 -0.000000 -0.000000 -0.000000 -0.000000 -0.000000 -0.000000 -0.000000 -0.000000 -0.000000 -0.000000 -0.000000 -0.000000 -0.000000 -0.000000 -0.000000 -0.000000 -0.000000 -0.000000 -0.000000 -0.000000 -0.000000 -0.000000 -0.000000 -0.000000 -0.000000 -0.000000 -0.000000 -0.000000 -0.000000 -0.000000 -0.000000 -0.000000 -0.000000 -0.000000 -0.000000 -0.000000 -0.000000 -0.000000 -0.000000 -0.000000 -0.000000 -0.000000 -0.000000 -0.000000 -0.000000 -0.000000 -0.000000 -0.000000 -0.000000 -0.000000 -0.000000 -0.000000 -0.000000 -0.000000 -0.000000 -0.000000 -0.000000 -0.000000 -0.000000 -0.000000 -0.000000 -0.000000 -0.000000 -0.000000 -0.000000 -0.000000 -0.000000 -0.000000 -0.000000 -0.000000 -0.000000 -0.000000 -0.000000 -0.000000 -0.000000 -0.000000 -0.000000 -0.000000 -0.000000 -0.000000 -0.000000 -0.000000 -0.000000 -0.000000 -0.000000 -0.000000 -0.000000 -0.000000 -0.000000 -0.000000 -0.000000 -0.000000 -0.000000 -0.000000 -0.000000 -0.000000 -0.000000 -0.000000 -0.000000 -0.000000 -0.000000 -0.000000 -0.000000 -0.000000 -0.000000 -0.000000 -0.000000 -0.000000 -0.000000 -0.000000 -0.000000 -0.000000 -0.000000 -0.000000 -0.000000 -0.000000 -0.000000 -0.000000 -0.000000 -0.000000 -0.000000 -0.000000 -0.000000 -0.000000 -0.000000 -0.000000 -0.000000 -0.000000 -0.000000 -0.000000 -0.000000 -0.000000 -0.000000 -0.000000 -0.000000 -0.000000 -0.000000 -0.000000 -0.000000 -0.000000 -0.000000 -0.000000 -0.000000 -0.000000 -0.000000 -0.000000 -0.000000 -0.000000 -0.000000 -0.000000 -0.000000 -0.000000 -0.000000 -0.000000 -0.000000 -0.000000 -0.000000 -0.000000 -0.000000 -0.000000 -0.000000 -0.000000 -0.000000 -0.000000 -0.000000 -0.000000 -0.000000 -0.000000 -0.000000 -0.000000 -0.000000 -0.000000 -0.000000 -0.000000 -0.000000 -0.000000 -0.000000 -0.000000 -0.000000 -0.000000 -0.000000 -0.000000 -0.000000 -0.000000 -0.000000 -0.000000 -0.000000 0.000000 -0.000000 0.000000 -0.000000 -0.000000 -0.000000 -0.000000 0.000000 0.000000 -0.000000 -0.000000 -0.000000 0.000000 -0.000000 0.000000 0.000000 0.000000 0.000000 0.000000 -0.000000 -0.000000 -0.000000 -0.000000 -0.000000 -0.000000 -0.000000 -0.000000 -0.000000 -0.000000 -0.000000 -0.000000 -0.000000 -0.000000 -0.000000 -0.000000 -0.000000 -0.000000 -0.000000 -0.000000 -0.000000 -0.000000 -0.000000 -0.000000 -0.000000 -0.000000 -0.000000 -0.000000 -0.000000 -0.000000 -0.000000 -0.000000 -0.000000 -0.000000 -0.000000 -0.000000 -0.000000 -0.000000 -0.000000 -0.000000 -0.000000 -0.000000 -0.000000 -0.000000 -0.000000 -0.000000 -0.000001 -0.000002 -0.000006 -0.000015 -0.000040 -0.000102 -0.000255 -0.000619 -0.001458 -0.003341 -0.007435 -0.016065 -0.033681 -0.068467 -0.134819 -0.256880 -0.472999 -0.840339 -1.437702 -2.362820 -3.718337 -5.579132 -7.934770 -10.608212 -13.171103 -14.912812 -14.976761 -12.841171 -9.361582 -8.597972 -20.775665 -67.558011 -193.292272 -491.046620 -1143.296787 -2933.912703 -1571.397078 2148.948060 1569.597871 1793.509080 2200.404950 3057.620371 3698.153612 4937.424472 6142.067738 7365.420421 9241.786047 10134.049709 11632.460477 12245.109060 13675.788710 14598.431971 14513.552500 16939.180075 19654.129097 16016.139254 12133.615382 7809.518198 7105.362714 7105.362714 7105.362714 0.000000 0.000000 0.000000 0.000000 -0.000000 -0.000000 -0.000000 -0.000000 -0.000000 -0.000000 -0.000000 -0.000000 -0.000000 -0.000000 -0.000000 -0.000000 -0.000000 -0.000000 -0.000000 -0.000000 -0.000000 -0.000000 -0.000000 -0.000000 -0.000000 -0.000000 -0.000000 -0.000000 -0.000000 -0.000000 -0.000000 -0.000000 -0.000000 -0.000000 -0.000000 -0.000000 -0.000000 -0.000000 -0.000000 -0.000000 -0.000000 -0.000000 -0.000000 -0.000000 -0.000000 -0.000000 -0.000000 -0.000000 -0.000000 -0.000000 -0.000001 -0.000002 -0.000006 -0.000017 -0.000045 -0.000114 -0.000283 -0.000683 -0.001599 -0.003642 -0.008057 -0.017307 -0.036073 -0.072898 -0.142699 -0.270288 -0.494731 -0.873687 -1.485698 -2.426644 -3.794607 -5.656084 -7.987818 -10.595778 -13.030369 -14.548164 -14.212218 -11.256743 -5.829756 -0.142359 0.021753 -16.746786 -70.922516 -195.661718 -422.071060 -503.248788 181.955466 1247.108585 1522.887597 1840.576084 2226.584244 2694.865614 3139.534880 3717.561254 4355.149070 5069.585537 5949.701130 6756.660113 7318.356839 7661.892790 8463.462071 9113.885032 10107.556525 13574.831994 15725.049135 13057.830550 9301.016016 6474.188670 6048.409317 6048.409317 6048.409317 0.000000 0.000000 0.000000 0.000000 0.000000 0.000000 0.000000 0.000000 -0.000000 0.000000 0.000000 0.000000 0.000000 0.000000 -0.000000 -0.000000 -0.000000 -0.000000 -0.000000 -0.000000 -0.000000 -0.000000 -0.000000 -0.000000 -0.000000 -0.000000 -0.000000 -0.000000 -0.000000 -0.000000 -0.000000 -0.000000 -0.000000 -0.000000 -0.000000 -0.000000 -0.000000 -0.000000 -0.000000 -0.000000 -0.000000 -0.000000 -0.000000 -0.000000 -0.000000 -0.000000 -0.000000 -0.000000 -0.000000 -0.000000 -0.000001 -0.000003 -0.000007 -0.000020 -0.000051 -0.000129 -0.000318 -0.000761 -0.001772 -0.004010 -0.008813 -0.018807 -0.038942 -0.078180 -0.152032 -0.286065 -0.520129 -0.912373 -1.540917 -2.499340 -3.880306 -5.740601 -8.042479 -10.573470 -12.862794 -14.138178 -13.394357 -9.649675 -2.406702 7.830990 19.370271 30.018506 39.234992 53.005171 97.475410 238.753288 543.431715 941.847095 1317.388803 1690.529869 2086.915511 2500.720007 2923.810478 3361.756817 3812.926656 4275.819096 4736.627625 5156.601523 5507.198158 5796.767956 6048.100845 6254.267803 6529.149663 7001.455770 7073.335976 6776.602164 6076.710521 5534.348310 5441.151054 5441.151054 5441.151054 -0.000000 -0.000000 -0.000000 -0.000000 -0.000000 0.000000 0.000000 -0.000000 -0.000000 0.000000 0.000000 0.000000 0.000000 0.000000 -0.000000 -0.000000 -0.000000 -0.000000 -0.000000 -0.000000 -0.000000 -0.000000 -0.000000 -0.000000 -0.000000 -0.000000 -0.000000 -0.000000 -0.000000 -0.000000 -0.000000 -0.000000 -0.000000 -0.000000 -0.000000 -0.000000 -0.000000 -0.000000 -0.000000 -0.000000 -0.000000 -0.000000 -0.000000 -0.000000 -0.000000 -0.000000 -0.000000 -0.000000 -0.000000 -0.000000 -0.000001 -0.000003 -0.000008 -0.000020 -0.000052 -0.000132 -0.000325 -0.000776 -0.001805 -0.004078 -0.008953 -0.019084 -0.039470 -0.079148 -0.153738 -0.288938 -0.524734 -0.919358 -1.550839 -2.512325 -3.895491 -5.755371 -8.051650 -10.568665 -12.832185 -14.065685 -13.254102 -9.383526 -1.857291 9.086587 22.390638 37.271616 56.075183 89.510457 164.192277 322.982109 591.475316 934.229703 1296.958265 1672.924028 2069.301630 2482.953730 2908.005680 3342.507598 3783.065453 4223.389426 4648.810751 5034.519245 5360.280667 5624.555788 5832.673707 5993.318457 6155.286974 6301.517194 6283.742730 6050.385496 5692.461461 5412.649958 5358.233452 5358.233452 5358.233452 -0.000000 -0.000000 -0.000000 -0.000000 -0.000000 0.000000 0.000000 -0.000000 0.000000 0.000000 0.000000 0.000000 0.000000 0.000000 -0.000000 -0.000000 -0.000000 -0.000000 -0.000000 -0.000000 -0.000000 -0.000000 -0.000000 -0.000000 -0.000000 -0.000000 -0.000000 -0.000000 -0.000000 -0.000000 -0.000000 -0.000000 -0.000000 -0.000000 -0.000000 -0.000000 -0.000000 -0.000000 -0.000000 -0.000000 -0.000000 -0.000000 -0.000000 -0.000000 -0.000000 -0.000000 -0.000000 -0.000000 -0.000000 -0.000000 -0.000001 -0.000003 -0.000008 -0.000020 -0.000052 -0.000132 -0.000325 -0.000776 -0.001805 -0.004078 -0.008953 -0.019084 -0.039470 -0.079148 -0.153738 -0.288938 -0.524734 -0.919358 -1.550839 -2.512325 -3.895491 -5.755371 -8.051650 -10.568665 -12.832185 -14.065685 -13.254102 -9.383526 -1.857291 9.086587 22.390638 37.271616 56.075183 89.510457 164.192277 322.982109 591.475316 934.229703 1296.958265 1672.924028 2069.301630 2482.953730 2908.005680 3342.507598 3783.065453 4223.389426 4648.810751 5034.519245 5360.280667 5624.555788 5832.673707 5993.318457 6155.286974 6301.517194 6283.742730 6050.385496 5692.461461 5412.649958 5358.233452 5358.233452 5358.233452 -0.000000 -0.000000 -0.000000 -0.000000 -0.000000 0.000000 0.000000 -0.000000 0.000000 0.000000 0.000000 0.000000 0.000000 0.000000 -0.000000 -0.000000 -0.000000 -0.000000 -0.000000 -0.000000 -0.000000 -0.000000 -0.000000 -0.000000 -0.000000 -0.000000 -0.000000 -0.000000 -0.000000 -0.000000 -0.000000 -0.000000 -0.000000 -0.000000 -0.000000 -0.000000 -0.000000 -0.000000 -0.000000 -0.000000 -0.000000 -0.000000 -0.000000 -0.000000 -0.000000 -0.000000 -0.000000 -0.000000 -0.000000 -0.000000 -0.000001 -0.000003 -0.000008 -0.000020 -0.000052 -0.000132 -0.000325 -0.000776 -0.001805 -0.004078 -0.008953 -0.019084 -0.039470 -0.079148 -0.153738 -0.288938 -0.524734 -0.919358 -1.550839 -2.512325 -3.895491 -5.755371 -8.051650 -10.568665 -12.832185 -14.065685 -13.254102 -9.383526 -1.857291 9.086587 22.390638 37.271616 56.075183 89.510457 164.192277 322.982109 591.475316 934.229703 1296.958265 1672.924028 2069.301630 2482.953730 2908.005680 3342.507598 3783.065453 4223.389426 4648.810751 5034.519245 5360.280667 5624.555788 5832.673707 5993.318457 6155.286974 6301.517194 6283.742730 6050.385496 5692.461461 5412.649958 5358.233452 5358.233452 5358.233452 -2117.626940 -2915.881352 -1271.137372 1247.555008 -2918.298426 -1964.740452 386.840504 -3997.033097 -1389.257569 1366.717343 411.294085 -902.390991 -514.919463 -243.110427 687.263808 294.126065 816.598255 1309.302219 1474.030308 1656.494485 1766.424405 1892.100803 2139.638450 2549.127474 3033.084173 3465.788909 3743.716752 3940.913141 4229.247576 4855.355840 5930.695701 7316.065602 8555.986294 9246.807744 9319.192693 9032.324873 8852.553540 8570.623585 8666.617657 8362.683701 8752.160405 9385.165047 10099.784803 11318.166150 10488.755239 10616.445970 10536.130145 8937.242933 8365.140052 8584.519327 8183.250116 9795.919723 11338.117284 11509.611129 11509.611129 11509.611129 1118.203797 1355.341150 -1359.979113 -1083.113329 -80.498220 91.559669 187.943376 546.819829 1308.348765 1720.511994 1947.461364 2272.283951 2479.629900 2589.582867 2638.303039 2710.480957 2868.680121 3087.422253 3348.033387 3668.705975 4100.288368 4649.267855 5274.489259 6058.831575 7029.603817 8029.064933 8947.496910 9568.181807 9846.112379 9781.929524 9499.869881 9480.991057 9462.612711 9259.115872 9744.012535 9865.752485 9978.857277 12026.599803 13471.256345 12834.823941 14031.403344 12927.873747 11890.762223 13142.109946 12047.438453 13194.818564 15679.791502 14095.798445 13634.692904 10317.191823 17278.566521 12881.633396 13371.347263 13340.637081 13340.637081 13340.637081 1400.825241 2374.984338 -720.808024 568.362163 -69.252553 449.905406 563.927863 1335.142408 1567.318922 1974.711598 2296.626340 2660.949231 2876.991596 3109.085197 3395.044103 3753.822396 4150.536882 4502.834983 4799.645369 5121.092508 5591.631131 6316.072550 7269.275102 8391.010654 9540.761527 10494.870689 11243.247744 11553.885206 11580.908017 11629.994327 11609.700829 12037.081550 12745.554073 12939.644281 13444.195446 13861.799327 13192.923150 14574.791618 16196.308633 15125.926220 14608.080305 15080.197902 14922.288453 15683.970814 18487.818496 16561.496522 24252.578290 17079.821717 19893.371942 19899.423565 12641.811642 17069.299498 16489.487944 16196.169260 16196.169260 16196.169260 -172.016700 100.722699 344.005336 -618.387574 22.318917 454.595475 643.499597 1227.246533 1417.647198 1959.707938 2306.739746 2674.813581 2931.376988 3183.180572 3443.630014 3766.239978 4159.805212 4565.220367 4961.264090 5373.801146 5889.596482 6633.454369 7642.069739 8884.891299 10317.395708 11646.110191 12813.254355 13540.194332 13660.538254 13687.643559 13606.517303 13916.618287 14833.463195 15433.534156 15633.393032 15511.366483 15154.651205 15204.791997 17129.700187 18965.347221 19095.321589 16682.656715 17362.220882 19669.652083 17830.988454 23383.553107 20485.198826 26983.680702 25964.259563 18974.199438 16610.709778 20501.925098 19293.451031 18766.829519 18766.829519 18766.829519 56.896662 117.643308 -377.988397 303.702633 419.055421 560.549614 1069.033848 1324.978444 1653.356607 2055.855839 2332.242569 2656.384351 2845.619470 3048.635669 3252.372187 3550.556513 3913.682143 4307.756205 4709.082563 5160.840802 5757.321867 6623.153004 7778.270940 9114.784750 10555.765489 11778.443875 12696.268003 13192.809971 12961.165127 12687.362991 12515.644586 12889.135136 14209.152153 15499.954359 16409.814974 16466.580214 16199.267121 15848.884423 17500.553559 18288.774458 19862.207213 20593.328143 18791.818786 18461.093982 22152.382610 23108.744447 27883.325120 21764.288837 31796.510612 23159.493468 22346.695188 19838.665683 20769.588110 20832.555050 20832.555050 20832.555050 -106.048902 -34.832201 226.786098 110.024785 263.054837 933.334621 878.635902 1162.582619 1527.957445 1769.0665