<VTKFile type="PolyData">
<PolyData>
<Piece NumberOfPoints="8632" NumberOfVerts="8632" NumberOfLines="0" NumberOfStrips="0" NumberOfPolys="0">
<PointData>
<DataArray type="Float64" Name="Pressure" format="ascii">
 -0.000761 -0.000761 -0.000761 -0.000820 -0.001507 -0.003438 -0.006062 -0.009857 -0.015413 -0.023576 -0.035554 -0.053051 -0.078443 -0.115015 -0.167260 -0.241277 -0.345252 -0.490066 -0.690026 -0.963749 -1.335190 -1.834828 -2.501004 -3.381380 -4.534482 -6.031286 -7.956748 -10.411192 -13.511429 -17.391477 -22.202729 -28.113451 -35.307490 -43.982142 -54.345210 -66.611375 -80.998157 -97.721884 -116.994203 -139.019800 -163.995983 -192.114700 -223.567252 -258.551538 -297.280936 -339.993116 -386.956065 -438.467454 -494.841961 -556.378255 -623.290331 -695.569212 -772.692470 -852.993371 -932.319661 -1002.169410 -1048.700249 -1052.147658 -985.139889 -835.579051 -659.846920 -524.449956 -397.970996 -250.000023 -149.317759 -140.452317 -164.217869 -140.561735 -59.921435 -4.129978 -1.265423 25.495660 119.069358 210.146383 264.092160 347.955549 475.229685 567.084541 609.184808 675.464508 845.365289 1121.900208 1423.098824 1719.778251 2083.333008 2587.769185 3203.696860 3860.952573 4575.851452 5348.246236 6141.549147 6938.489351 7708.641654 8429.981332 9144.727548 9872.762183 10567.903751 11205.581542 11801.747858 12371.694295 12894.402823 13346.259939 13744.355690 14116.853632 14445.487963 14694.715673 14903.036772 15068.895751 15105.875476 15105.875476 15105.875476 -0.000761 -0.000761 -0.000761 -0.000820 -0.001507 -0.003438 -0.006062 -0.009857 -0.015413 -0.023576 -0.035554 -0.053051 -0.078443 -0.115015 -0.167260 -0.241277 -0.345252 -0.490066 -0.690026 -0.963749 -1.335190 -1.834828 -2.501004 -3.381380 -4.534482 -6.031286 -7.956748 -10.411192 -13.511429 -17.391477 -22.202729 -28.113451 -35.307490 -43.982142 -54.345210 -66.611375 -80.998157 -97.721884 -116.994203 -139.019800 -163.995983 -192.114700 -223.567252 -258.551538 -297.280936 -339.993116 -386.956065 -438.467454 -494.841961 -556.378255 -623.290331 -695.569212 -772.692470 -852.993371 -932.319661 -1002.169410 -1048.700249 -1052.147658 -985.139889 -835.579051 -659.846920 -524.449956 -397.970996 -250.000023 -149.317759 -140.452317 -164.217869 -140.561735 -59.921435 -4.129978 -1.265423 25.495660 119.069358 210.146383 264.092160 347.955549 475.229685 567.084541 609.184808 675.464508 845.365289 1121.900208 1423.098824 1719.778251 2083.333008 2587.769185 3203.696860 3860.952573 4575.851452 5348.246236 6141.549147 6938.489351 7708.641654 8429.981332 9144.727548 9872.762183 10567.903751 11205.581542 11801.747858 12371.694295 12894.402823 13346.259939 13744.355690 14116.853632 14445.487963 14694.715673 14903.036772 15068.895751 15105.875476 15105.875476 15105.875476 -0.000761 -0.000761 -0.000761 -0.000820 -0.001507 -0.003438 -0.006062 -0.009857 -0.015413 -0.023576 -0.035554 -0.053051 -0.078443 -0.115015 -0.167260 -0.241277 -0.345252 -0.490066 -0.690026 -0.963749 -1.335190 -1.834828 -2.501004 -3.381380 -4.534482 -6.031286 -7.956748 -10.411192 -13.511429 -17.391477 -22.202729 -28.113451 -35.307490 -43.982142 -54.345210 -66.611375 -80.998157 -97.721884 -116.994203 -139.019800 -163.995983 -192.114700 -223.567252 -258.551538 -297.280936 -339.993116 -386.956065 -438.467454 -494.841961 -556.378255 -623.290331 -695.569212 -772.692470 -852.993371 -932.319661 -1002.169410 -1048.700249 -1052.147658 -985.139889 -835.579051 -659.846920 -524.449956 -397.970996 -250.000023 -149.317759 -140.452317 -164.217869 -140.561735 -59.921435 -4.129978 -1.265423 25.495660 119.069358 210.146383 264.092160 347.955549 475.229685 567.084541 609.184808 675.464508 845.365289 1121.900208 1423.098824 1719.778251 2083.333008 2587.769185 3203.696860 3860.952573 4575.851452 5348.246236 6141.549147 6938.489351 7708.641654 8429.981332 9144.727548 9872.762183 10567.903751 11205.581542 11801.747858 12371.694295 12894.402823 13346.259939 13744.355690 14116.853632 14445.487963 14694.715673 14903.036772 15068.895751 15105.875476 15105.875476 15105.875476 -0.000752 -0.000752 -0.000752 -0.000809 -0.001489 -0.003400 -0.006019 -0.009818 -0.015372 -0.023521 -0.035477 -0.052943 -0.078290 -0.114799 -0.166961 -0.240864 -0.344689 -0.489304 -0.689006 -0.962395 -1.333410 -1.832512 -2.498022 -3.377576 -4.529682 -6.025290 -7.949339 -10.402134 -13.500478 -17.378382 -22.187248 -28.095359 -35.286592 -43.958285 -54.318291 -66.581350 -80.965042 -97.685746 -116.955142 -138.977927 -163.951385 -192.067402 -223.517199 -258.498596 -297.224976 -339.934260 -386.895298 -438.408105 -494.793243 -556.363881 -623.369626 -695.888631 -773.606932 -855.325449 -937.534872 -1012.252040 -1065.944614 -1081.263523 -1024.169093 -849.860368 -648.264555 -527.347113 -412.400877 -233.494543 -117.311725 -130.033365 -182.638862 -164.013477 -52.058330 13.491339 -12.377688 -3.280771 116.501858 221.342114 248.579306 326.683762 485.350096 583.124546 597.992071 632.839414 797.455499 1102.150642 1408.678421 1668.717491 1987.622837 2483.701003 3103.904435 3720.072504 4418.778562 5204.708135 6003.347257 6814.204829 7611.948366 8334.339424 9044.402354 9803.221895 10524.061703 11159.482833 11733.903977 12282.590021 12784.425213 13200.343597 13574.690848 13975.250192 14368.088419 14657.144898 14877.418701 15067.185554 15111.718947 15111.718947 15111.718947 -0.000654 -0.000654 -0.000654 -0.000698 -0.001264 -0.002898 -0.005476 -0.009411 -0.014953 -0.022981 -0.034720 -0.051865 -0.076765 -0.112658 -0.163980 -0.236756 -0.339077 -0.481712 -0.678832 -0.948892 -1.315664 -1.809418 -2.468267 -3.339627 -4.481777 -5.965448 -7.875373 -10.311694 -13.391104 -17.247580 -22.032589 -27.914590 -35.077755 -43.719842 -54.049222 -66.281217 -80.633997 -97.324459 -116.564638 -138.559322 -163.505556 -191.594633 -223.016924 -257.969455 -296.665595 -339.345642 -386.286815 -437.811846 -494.298473 -556.200792 -624.115166 -698.973885 -782.556418 -878.553854 -994.914438 -1126.850732 -1259.039867 -1410.617863 -1553.524040 -994.160069 -331.128291 -546.617553 -743.802344 -20.566079 437.759153 -1.317085 -448.624843 -632.372639 123.724975 405.762170 -171.678310 -553.186010 136.574399 552.796049 -16.300408 -117.414448 732.288125 880.187306 478.920665 75.756858 73.509953 955.909843 1372.311728 1077.632005 724.262002 1140.762754 2148.893595 2006.007422 2479.623477 3632.873967 4369.279138 5275.482088 6562.608572 7346.926529 7898.903457 9034.007984 10084.305082 10637.732219 10680.718270 10899.048220 11169.829812 11220.648267 11335.323977 12107.233251 13328.716730 14198.127268 14516.452168 14997.441982 15147.299039 15147.299039 15147.299039 -0.000528 -0.000528 -0.000528 -0.000560 -0.000946 -0.002042 -0.004364 -0.008809 -0.014455 -0.022367 -0.033870 -0.050660 -0.075058 -0.110259 -0.160640 -0.232146 -0.332776 -0.473179 -0.667388 -0.933693 -1.295672 -1.783381 -2.434696 -3.296779 -4.427649 -5.897783 -7.791682 -10.209297 -13.267189 -17.099299 -21.857161 -27.709432 -34.840625 -43.448973 -53.743441 -65.940025 -80.257580 -96.913608 -116.120565 -138.083366 -162.998803 -191.057531 -222.449019 -257.369558 -296.032963 -338.683438 -385.610818 -437.171537 -493.828119 -556.244524 -625.536612 -703.931647 -796.484146 -915.538315 -1093.564030 -1289.148841 -1494.681171 -1845.358517 -2354.531691 -1302.413150 135.811705 -587.652449 -1362.496233 221.478630 1324.226448 220.220250 -951.722621 -1600.214985 436.039904 1290.787953 -509.894407 -1857.295756 252.516196 1609.742789 -698.029710 -1249.485411 1550.515090 1703.489715 345.247320 -970.874088 -1498.131690 1115.874797 1858.139649 341.985755 -1752.009574 -1237.496890 2159.305903 -1055.363397 -1004.113727 2848.612717 2478.097826 2627.068226 5382.895599 7803.779757 5753.185115 7316.896242 9711.539956 9191.114814 8181.660912 6933.944864 8448.815088 8435.593209 7894.039678 8866.318923 9942.893016 11898.390177 13536.938758 14777.364111 15131.869997 15131.869997 15131.869997 -0.000512 -0.000512 -0.000512 -0.000543 -0.000905 -0.001910 -0.000411 -0.000411 -0.000411 -0.000431 -0.000655 -0.001166 -0.000279 -0.000279 -0.000279 -0.000287 -0.000375 -0.000524 -0.000181 -0.000181 -0.000181 -0.000184 -0.000214 -0.000262 -0.000114 -0.000114 -0.000114 -0.000115 -0.000124 -0.000139 -0.000071 -0.000071 -0.000071 -0.000071 -0.000073 -0.000077 -0.000043 -0.000043 -0.000043 -0.000043 -0.000043 -0.000044 -0.000026 -0.000026 -0.000026 -0.000026 -0.000026 -0.000026 -0.000016 -0.000016 -0.000016 -0.000016 -0.000015 -0.000015 -0.000009 -0.000009 -0.000009 -0.000009 -0.000009 -0.000009 -0.000005 -0.000005 -0.000005 -0.000005 -0.000005 -0.000005 -0.000003 -0.000003 -0.000003 -0.000003 -0.000003 -0.000003 -0.000002 -0.000002 -0.000002 -0.000002 -0.000002 -0.000002 -0.000001 -0.000001 -0.000001 -0.000001 -0.000001 -0.000001 -0.000001 -0.000001 -0.000001 -0.000001 -0.000001 -0.000001 -0.000000 -0.000000 -0.000000 -0.000000 -0.000000 -0.000000 -0.000000 -0.000000 -0.000000 -0.000000 -0.000000 -0.000000 -0.000000 -0.000000 -0.000000 -0.000000 -0.000000 -0.000000 -0.000000 -0.000000 -0.000000 -0.000000 -0.000000 -0.000000 -0.000000 -0.000000 -0.000000 -0.000000 -0.000000 -0.000000 -0.000000 -0.000000 -0.000000 -0.000000 -0.000000 -0.000000 -0.000000 -0.000000 -0.000000 -0.000000 -0.000000 -0.000000 -0.000000 -0.000000 -0.000000 -0.000000 -0.000000 -0.000000 -0.000000 -0.000000 -0.000000 -0.000000 -0.000000 -0.000000 -0.000000 -0.000000 -0.000000 -0.000000 -0.000000 -0.000000 -0.000000 -0.000000 -0.000000 -0.000000 0.000000 -0.000000 0.000000 0.000000 0.000000 -0.000000 0.000000 0.000000 0.000000 0.000000 0.000000 -0.000000 0.000000 0.000000 0.000000 0.000000 0.000000 -0.000000 0.000000 0.000000 0.000000 0.000000 0.000000 -0.000000 0.000000 0.000000 0.000000 0.000000 0.000000 -0.000000 0.000000 0.000000 0.000000 0.000000 0.000000 -0.000000 0.000000 0.000000 0.000000 0.000000 0.000000 -0.000000 0.000000 0.000000 0.000000 0.000000 0.000000 -0.000000 0.000000 0.000000 0.000000 0.000000 0.000000 -0.000000 0.000000 0.000000 0.000000 0.000000 0.000000 -0.000000 0.000000 0.000000 0.000000 0.000000 0.000000 -0.000000 0.000000 0.000000 0.000000 0.000000 0.000000 -0.000000 0.000000 0.000000 0.000000 0.000000 0.000000 0.000000 0.000000 0.000000 -0.000000 -0.000000 -0.000000 0.000000 -0.000000 0.000000 -0.000000 -0.000000 -0.000000 -0.000000 -0.000000 -0.000000 -0.000000 -0.000000 -0.000000 -0.000000 -0.000000 -0.000000 -0.000000 -0.000000 -0.000000 -0.000000 -0.000000 -0.000000 -0.000000 -0.000000 -0.000000 -0.000000 -0.000000 -0.000000 -0.000000 -0.000000 -0.000000 -0.000000 -0.000000 -0.000000 -0.000000 -0.000000 -0.000000 -0.000000 -0.000000 -0.000000 -0.000000 -0.000000 -0.000000 -0.000000 -0.000000 -0.000000 -0.000000 -0.000000 -0.000000 -0.000000 -0.000000 -0.000000 -0.000000 -0.000000 -0.000000 -0.000000 -0.000000 -0.000000 -0.000000 -0.000000 -0.000000 -0.000000 -0.000000 -0.000000 -0.000000 -0.000000 -0.000000 -0.000000 -0.000000 -0.000000 -0.000000 -0.000000 -0.000000 -0.000000 -0.000000 -0.000000 -0.000000 -0.000000 -0.000000 -0.000000 -0.000000 -0.000000 -0.000000 -0.000000 -0.000000 -0.000000 -0.000000 -0.000000 -0.000000 -0.000000 -0.000000 -0.000000 -0.000000 -0.000000 -0.000000 -0.000000 -0.000000 -0.000000 -0.000000 -0.000000 -0.000000 -0.000000 -0.000000 -0.000000 -0.000000 -0.000000 -0.000000 -0.000000 -0.000000 -0.000000 -0.000000 -0.000000 -0.000000 -0.000000 -0.000000 -0.000000 -0.000000 -0.000000 -0.000000 -0.000000 -0.000000 -0.000000 -0.000000 -0.000000 -0.000000 -0.000000 -0.000000 -0.000000 -0.000000 -0.000000 -0.000000 -0.000000 -0.000000 -0.000000 -0.000000 -0.000000 -0.000000 -0.000000 -0.000000 -0.000000 -0.000000 -0.000000 -0.000000 -0.000000 -0.000000 -0.000000 -0.000000 -0.000000 -0.000000 -0.000000 -0.000000 -0.000000 -0.000000 -0.000000 -0.000000 -0.000000 -0.000000 -0.000000 -0.000000 -0.000000 -0.000000 -0.000000 -0.000000 -0.000000 -0.000000 -0.000000 -0.000000 -0.000000 -0.000000 -0.000000 -0.000000 -0.000000 -0.000000 -0.000000 -0.000000 -0.000000 -0.000000 -0.000000 -0.000000 -0.000000 -0.000000 -0.000000 -0.000000 -0.000000 -0.000000 -0.000000 -0.000000 -0.000000 -0.000000 -0.000000 -0.000000 -0.000000 -0.000000 -0.000000 -0.000000 -0.000000 -0.000000 -0.000000 -0.000000 -0.000000 -0.000000 -0.000000 -0.000000 -0.000000 -0.000000 -0.000000 -0.000000 -0.000000 -0.000000 -0.000000 -0.000000 -0.000000 -0.000000 -0.000000 -0.000000 -0.000000 -0.000000 -0.000000 -0.000000 -0.000000 -0.000000 -0.000000 -0.000000 -0.000000 -0.000000 -0.000000 -0.000000 -0.000000 -0.000000 -0.000000 -0.000000 -0.000000 -0.000000 -0.000000 -0.000000 -0.000000 -0.000000 -0.000000 -0.000000 -0.000000 -0.000000 -0.000000 -0.000000 -0.000000 -0.000000 -0.000000 -0.000000 -0.000000 -0.000000 -0.000000 -0.000000 -0.000000 -0.000000 -0.000000 -0.000000 -0.000000 -0.000000 -0.000000 -0.000000 -0.000000 -0.000000 -0.000000 -0.000000 -0.000000 -0.000000 -0.000000 -0.000000 -0.000000 -0.000000 -0.000000 -0.000000 -0.000000 -0.000000 -0.000000 -0.000000 -0.000000 -0.000000 -0.000000 -0.000000 -0.000000 -0.000000 -0.000000 -0.000000 -0.000000 -0.000000 -0.000000 -0.000000 -0.000000 -0.000000 -0.000000 -0.000000 -0.000000 -0.000000 -0.000000 -0.000000 -0.000000 -0.000000 -0.000000 -0.000000 -0.000000 -0.000000 -0.000000 -0.000000 -0.000000 -0.000000 -0.000000 -0.000000 -0.000000 -0.000000 -0.000000 -0.000000 -0.000000 -0.000000 -0.000000 -0.000000 -0.000000 -0.000000 -0.000000 -0.000000 -0.000000 -0.000000 -0.000000 -0.000000 -0.000000 -0.000000 -0.000000 -0.000000 -0.000000 -0.000000 -0.000000 -0.000000 -0.000000 -0.000000 -0.000000 -0.000000 -0.000000 -0.000000 -0.000000 -0.000000 -0.000000 -0.000000 -0.000000 -0.000000 -0.000000 -0.000000 -0.000000 -0.000000 -0.000000 -0.000000 -0.000000 -0.000000 -0.000000 -0.000000 -0.000000 -0.000000 -0.000000 -0.000000 -0.000000 -0.000000 -0.000000 -0.000000 -0.000000 -0.000000 -0.000000 -0.000000 -0.000000 -0.000000 -0.000000 -0.000000 -0.000000 -0.000000 -0.000000 -0.000000 -0.000000 -0.000000 -0.000000 -0.000000 -0.000000 -0.000000 -0.000000 -0.000000 -0.000000 -0.000000 -0.000000 -0.000000 -0.000000 -0.000000 -0.000000 -0.000000 -0.000000 -0.000000 -0.000000 -0.000000 -0.000000 -0.000000 -0.000000 -0.000000 -0.000000 -0.000000 -0.000000 -0.000000 -0.000000 -0.000000 -0.000000 -0.000000 -0.000000 -0.000000 -0.000000 -0.000000 -0.000000 -0.000000 -0.000000 -0.000000 -0.000000 -0.000000 -0.000000 -0.000000 -0.000000 -0.000000 -0.000000 -0.000000 -0.000000 -0.000000 -0.000000 -0.000000 -0.000000 -0.000000 -0.000000 -0.000000 -0.000000 -0.000000 -0.000000 -0.000000 -0.000000 -0.000000 -0.000000 -0.000000 -0.000000 -0.000000 -0.000000 -0.000000 -0.000000 -0.000000 -0.000000 -0.000000 -0.000000 -0.000000 -0.000000 -0.000000 -0.000000 -0.000000 -0.000000 -0.000000 -0.000000 -0.000000 -0.000000 -0.000000 -0.000000 -0.000000 -0.000000 -0.000000 -0.000000 -0.000000 -0.000000 -0.000000 -0.000000 -0.000000 -0.000000 -0.000000 -0.000000 -0.000000 -0.000000 -0.000000 -0.000000 -0.000000 -0.000000 -0.000000 -0.000000 -0.000000 -0.000000 -0.000000 -0.000000 -0.000000 -0.000000 -0.000000 -0.000000 -0.000000 -0.000000 -0.000000 -0.000000 -0.000000 -0.000000 -0.000000 -0.000000 -0.000000 -0.000000 -0.000000 -0.000000 -0.000000 -0.000000 -0.000000 -0.000000 -0.000000 -0.000000 -0.000000 -0.000000 -0.000000 -0.000000 -0.000000 -0.000000 -0.000000 -0.000000 -0.000000 -0.000000 -0.000000 -0.000000 -0.000000 -0.000000 -0.000000 -0.000000 -0.000000 -0.000000 -0.000000 -0.000000 -0.000000 -0.000000 -0.000000 -0.000000 -0.000000 -0.000000 -0.000000 -0.000000 -0.000000 -0.000000 -0.000000 -0.000000 -0.000000 -0.000000 -0.000000 -0.000000 -0.000000 -0.000000 -0.000000 -0.000000 -0.000000 -0.000000 -0.000000 -0.000000 -0.000000 -0.000000 -0.000000 -0.000000 -0.000000 -0.000000 -0.000000 -0.000000 -0.000000 -0.000000 -0.000000 -0.000000 -0.000000 -0.000000 -0.000000 -0.000000 -0.000000 -0.000000 -0.000000 -0.000000 -0.000000 -0.000000 -0.000000 -0.000000 -0.000000 -0.000000 -0.000000 -0.000000 -0.000000 -0.000000 -0.000000 -0.000000 -0.000000 -0.000000 -0.000000 -0.000000 -0.000000 -0.000000 -0.000000 -0.000000 -0.000000 -0.000000 -0.000000 -0.000000 -0.000000 -0.000000 -0.000000 -0.000000 -0.000000 -0.000000 -0.000000 -0.000000 -0.000000 -0.000000 -0.000000 -0.000000 -0.000000 -0.000000 -0.000000 -0.000000 -0.000000 -0.000000 -0.000000 -0.000000 -0.000000 -0.000000 -0.000000 -0.000000 -0.000000 -0.000000 -0.000000 -0.000000 -0.000000 -0.000000 -0.000000 -0.000000 -0.000000 -0.000000 -0.000000 -0.000000 -0.000000 -0.000000 -0.000000 -0.000000 -0.000000 -0.000000 -0.000000 -0.000000 -0.000000 -0.000000 -0.000000 -0.000000 -0.000000 -0.000000 -0.000000 -0.000000 -0.000000 -0.000000 -0.000000 -0.000000 -0.000000 -0.000000 -0.000000 -0.000000 -0.000000 -0.000000 -0.000000 -0.000000 -0.000000 -0.000000 -0.000000 -0.000000 -0.000000 -0.000000 -0.000000 -0.000000 -0.000000 -0.000000 -0.000000 -0.000000 -0.000000 -0.000000 -0.000000 -0.000000 -0.000000 -0.000000 -0.000000 -0.000000 -0.000000 -0.000000 -0.000000 -0.000000 -0.000000 -0.000000 -0.000000 -0.000000 -0.000000 -0.000000 -0.000000 -0.000000 -0.000000 -0.000000 -0.000000 -0.000000 -0.000000 -0.000000 -0.000000 -0.000000 -0.000000 -0.000000 -0.000000 -0.000000 -0.000000 -0.000000 -0.000000 -0.000000 -0.000000 -0.000000 -0.000000 -0.000000 -0.000000 -0.000000 -0.000000 -0.000000 -0.000000 -0.000000 -0.000000 -0.000000 -0.000000 -0.000000 -0.000000 -0.000000 -0.000000 -0.000000 -0.000000 -0.000000 -0.000000 -0.000000 -0.000000 -0.000000 0.000000 -0.000000 -0.000000 -0.000000 -0.000000 -0.000000 -0.000000 -0.000000 -0.000000 -0.000000 -0.000000 -0.000000 -0.000000 -0.000000 -0.000000 -0.000000 -0.000000 -0.000000 -0.000000 -0.000000 -0.000000 -0.000000 -0.000000 -0.000000 -0.000000 -0.000000 -0.000000 -0.000000 -0.000000 -0.000000 -0.000000 -0.000000 -0.000000 -0.000000 -0.000000 -0.000000 -0.000000 -0.000000 -0.000000 -0.000000 -0.000000 -0.000000 -0.000000 -0.000000 -0.000000 -0.000000 -0.000000 -0.000000 -0.000000 -0.000000 -0.000000 -0.000000 -0.000000 -0.000000 -0.000000 -0.000000 -0.000000 -0.000000 -0.000000 -0.000000 -0.000000 -0.000000 -0.000000 -0.000000 -0.000000 -0.000000 -0.000000 -0.000000 -0.000000 -0.000000 -0.000000 -0.000000 -0.000000 -0.000000 -0.000000 -0.000000 -0.000000 -0.000000 -0.000000 -0.000000 -0.000000 -0.000000 -0.000000 -0.000000 -0.000000 -0.000000 -0.000000 -0.000000 -0.000000 -0.000000 -0.000000 -0.000000 -0.000000 -0.000000 -0.000000 -0.000000 -0.000000 -0.000000 -0.000000 -0.000000 -0.000000 -0.000000 -0.000000 -0.000000 -0.000000 -0.000000 -0.000000 -0.000000 -0.000000 -0.000000 -0.000000 -0.000000 -0.000000 -0.000000 -0.000000 -0.000000 -0.000000 -0.000000 -0.000000 -0.000000 -0.000000 -0.000000 -0.000000 -0.000000 -0.000000 -0.000000 -0.000000 -0.000000 -0.000000 -0.000000 -0.000000 -0.000000 -0.000000 -0.000000 -0.000000 -0.000000 -0.000000 -0.000000 -0.000000 -0.000000 -0.000000 -0.000000 -0.000000 -0.000000 -0.000000 -0.000000 -0.000000 -0.000000 -0.000000 -0.000000 -0.000000 -0.000000 -0.000000 -0.000000 -0.000000 -0.000000 -0.000000 -0.000000 -0.000000 -0.000000 -0.000000 -0.000000 -0.000000 -0.000000 -0.000000 -0.000000 -0.000000 -0.000000 -0.000000 -0.000000 -0.000000 -0.000000 -0.000000 -0.000000 -0.000000 -0.000000 -0.000000 -0.000000 -0.000000 -0.000000 -0.000000 -0.000000 -0.000000 -0.000000 -0.000000 -0.000000 -0.000000 -0.000000 -0.000000 -0.000000 -0.000000 -0.000000 -0.000000 -0.000000 -0.000000 -0.000000 -0.000000 -0.000000 -0.000000 -0.000000 -0.000000 -0.000000 -0.000000 -0.000000 -0.000000 -0.000000 -0.000000 -0.000000 -0.000000 -0.000000 -0.000000 -0.000000 -0.000000 -0.000000 -0.000000 -0.000000 -0.000000 -0.000000 -0.000000 -0.000000 -0.000000 0.000000 -0.000000 0.000000 -0.000000 -0.000000 -0.000000 -0.000000 0.000000 0.000000 -0.000000 -0.000000 -0.000000 0.000000 -0.000000 0.000000 0.000000 0.000000 0.000000 0.000000 -0.000000 -0.000000 -0.000000 -0.000000 -0.000000 -0.000000 -0.000000 -0.000000 -0.000000 -0.000000 -0.000000 -0.000000 -0.000000 -0.000000 -0.000000 -0.000001 -0.000001 -0.000002 -0.000004 -0.000006 -0.000010 -0.000017 -0.000027 -0.000044 -0.000069 -0.000109 -0.000171 -0.000264 -0.000403 -0.000611 -0.000917 -0.001361 -0.001999 -0.002904 -0.004170 -0.005917 -0.008292 -0.011466 -0.015627 -0.020968 -0.027644 -0.035727 -0.045102 -0.055329 -0.065422 -0.073530 -0.076481 -0.069140 -0.043538 0.012315 0.115994 0.292699 0.577874 1.020507 1.687218 2.667233 4.078299 6.073584 8.849495 12.654315 17.797481 24.659259 33.700658 45.473484 60.630704 79.937462 104.282993 134.692781 172.337531 218.529760 274.688643 342.239294 422.397369 515.784711 621.848439 738.146943 859.766353 979.538580 1090.722908 1196.892760 1345.090780 1745.322172 3021.407882 4101.238892 3375.269357 4841.872469 6657.830397 6497.147474 9216.835185 10364.983215 10752.543410 14579.730005 14977.314125 15013.946273 16325.804428 19140.769783 18046.203361 18352.770132 20319.344717 19607.326200 17620.182371 15811.144500 13634.007853 12992.203430 13102.856505 13102.856505 13102.856505 0.000000 0.000000 0.000000 0.000000 -0.000000 -0.000000 -0.000000 -0.000000 -0.000000 -0.000000 -0.000000 -0.000000 -0.000000 -0.000000 -0.000000 -0.000000 -0.000000 -0.000000 -0.000000 -0.000001 -0.000001 -0.000002 -0.000004 -0.000006 -0.000011 -0.000017 -0.000028 -0.000045 -0.000071 -0.000112 -0.000175 -0.000270 -0.000413 -0.000626 -0.000937 -0.001389 -0.002038 -0.002957 -0.004241 -0.006009 -0.008409 -0.011611 -0.015802 -0.021167 -0.027856 -0.035925 -0.045240 -0.055328 -0.065158 -0.072813 -0.075025 -0.066535 -0.039199 0.019201 0.126539 0.308399 0.600709 1.053058 1.732798 2.730026 4.163508 6.187565 8.999880 12.850105 18.049100 24.978583 34.101021 45.969708 61.239182 80.676302 105.172165 135.754021 173.593653 220.003085 276.399434 344.208783 424.669154 518.496623 625.417058 743.664455 869.728093 998.925715 1127.937178 1261.911153 1432.612829 1735.973170 2272.711442 2931.698731 3359.637213 4043.130644 4884.699597 5513.524027 6587.154939 7659.695639 8577.559532 10521.471574 11456.422512 11551.667725 12925.417411 15456.862774 16026.580419 17953.039159 18716.452286 17472.706416 15087.198488 12336.280338 11521.443216 12396.527000 12542.277099 12542.277099 12542.277099 0.000000 0.000000 0.000000 0.000000 0.000000 -0.000000 -0.000000 -0.000000 -0.000000 -0.000000 -0.000000 -0.000000 -0.000000 -0.000000 -0.000000 -0.000000 -0.000000 -0.000000 -0.000000 -0.000001 -0.000001 -0.000002 -0.000004 -0.000007 -0.000011 -0.000018 -0.000029 -0.000046 -0.000074 -0.000116 -0.000180 -0.000278 -0.000425 -0.000642 -0.000961 -0.001422 -0.002083 -0.003018 -0.004322 -0.006115 -0.008544 -0.011778 -0.016001 -0.021393 -0.028094 -0.036145 -0.045386 -0.055309 -0.064829 -0.071950 -0.073299 -0.063467 -0.034113 0.027248 0.138832 0.326666 0.627234 1.090817 1.785604 2.802693 4.262012 6.319204 9.173407 13.075834 18.338972 25.346197 34.561651 46.540338 61.938608 81.525283 106.193530 136.972434 175.034502 221.690023 278.351106 346.438941 427.203376 521.436716 629.112879 749.086819 879.147017 1016.885023 1161.942350 1320.073282 1508.710039 1758.702231 2097.279205 2510.492259 2968.082629 3492.721257 4081.047803 4719.701294 5427.569636 6150.382679 6883.989302 7644.919257 8310.404854 8907.732513 9590.415513 10350.179814 11070.477142 11977.943901 12457.241462 12681.946691 12495.333286 12169.300228 12174.223867 12248.759523 12228.890706 12228.890706 12228.890706 -0.000000 -0.000000 -0.000000 -0.000000 -0.000000 -0.000000 -0.000000 -0.000000 -0.000000 -0.000000 -0.000000 -0.000000 -0.000000 -0.000000 -0.000000 -0.000000 -0.000000 -0.000000 -0.000000 -0.000001 -0.000001 -0.000002 -0.000004 -0.000007 -0.000011 -0.000018 -0.000029 -0.000047 -0.000074 -0.000117 -0.000181 -0.000280 -0.000427 -0.000645 -0.000965 -0.001428 -0.002091 -0.003029 -0.004336 -0.006134 -0.008569 -0.011808 -0.016037 -0.021433 -0.028136 -0.036183 -0.045411 -0.055304 -0.064767 -0.071791 -0.072983 -0.062908 -0.033188 0.028708 0.141059 0.329971 0.632030 1.097637 1.795136 2.815801 4.279770 6.342922 9.204655 13.116463 18.391123 25.412309 34.644461 46.642894 62.064281 81.677797 106.376974 137.191202 175.293064 221.992417 278.700196 346.836109 427.650748 521.946966 629.736215 749.970045 880.640578 1019.693804 1167.217826 1328.996903 1520.175010 1764.323517 2081.073055 2469.256777 2916.012715 3422.979395 3990.516282 4612.803074 5281.646013 5967.239894 6655.514195 7339.434062 7974.298387 8571.423014 9195.284537 9855.036256 10530.033713 11204.168017 11728.974341 12015.631522 12142.175384 12213.260961 12227.094841 12195.670901 12185.258595 12185.258595 12185.258595 -0.000000 -0.000000 -0.000000 -0.000000 -0.000000 -0.000000 -0.000000 -0.000000 -0.000000 -0.000000 -0.000000 -0.000000 -0.000000 -0.000000 -0.000000 -0.000000 -0.000000 -0.000000 -0.000000 -0.000001 -0.000001 -0.000002 -0.000004 -0.000007 -0.000011 -0.000018 -0.000029 -0.000047 -0.000074 -0.000117 -0.000181 -0.000280 -0.000427 -0.000645 -0.000965 -0.001428 -0.002091 -0.003029 -0.004336 -0.006134 -0.008569 -0.011808 -0.016037 -0.021433 -0.028136 -0.036183 -0.045411 -0.055304 -0.064767 -0.071791 -0.072983 -0.062908 -0.033188 0.028708 0.141059 0.329971 0.632030 1.097637 1.795136 2.815801 4.279770 6.342922 9.204655 13.116463 18.391123 25.412309 34.644461 46.642894 62.064281 81.677797 106.376974 137.191202 175.293064 221.992417 278.700196 346.836109 427.650748 521.946966 629.736215 749.970045 880.640578 1019.693804 1167.217826 1328.996903 1520.175010 1764.323517 2081.073055 2469.256777 2916.012715 3422.979395 3990.516282 4612.803074 5281.646013 5967.239894 6655.514195 7339.434062 7974.298387 8571.423014 9195.284537 9855.036256 10530.033713 11204.168017 11728.974341 12015.631522 12142.175384 12213.260961 12227.094841 12195.670901 12185.258595 12185.258595 12185.258595 -0.000000 -0.000000 -0.000000 -0.000000 -0.000000 -0.000000 -0.000000 -0.000000 -0.000000 -0.000000 -0.000000 -0.000000 -0.000000 -0.000000 -0.000000 -0.000000 -0.000000 -0.000000 -0.000000 -0.000001 -0.000001 -0.000002 -0.000004 -0.000007 -0.000011 -0.000018 -0.000029 -0.000047 -0.000074 -0.000117 -0.000181 -0.000280 -0.000427 -0.000645 -0.000965 -0.001428 -0.002091 -0.003029 -0.004336 -0.006134 -0.008569 -0.011808 -0.016037 -0.021433 -0.028136 -0.036183 -0.045411 -0.055304 -0.064767 -0.071791 -0.072983 -0.062908 -0.033188 0.028708 0.141059 0.329971 0.632030 1.097637 1.795136 2.815801 4.279770 6.342922 9.204655 13.116463 18.391123 25.412309 34.644461 46.642894 62.064281 81.677797 106.376974 137.191202 175.293064 221.992417 278.700196 346.836109 427.650748 521.946966 629.736215 749.970045 880.640578 1019.693804 1167.217826 1328.996903 1520.175010 1764.323517 2081.073055 2469.256777 2916.012715 3422.979395 3990.516282 4612.803074 5281.646013 5967.239894 6655.514195 7339.434062 7974.298387 8571.423014 9195.284537 9855.036256 10530.033713 11204.168017 11728.974341 12015.631522 12142.175384 12213.260961 12227.094841 12195.670901 12185.258595 12185.258595 12185.258595 -1341.890888 -1567.088186 -1995.495918 -2384.590440 -934.280566 167.399988 -852.585505 -1275.075990 682.079487 1243.286220 -13.753146 -1264.374284 -1485.456248 956.353507 1095.050182 -994.901881 -1891.767220 925.630180 1423.539801 -1325.511910 -912.912733 2127.511161 1539.587640 97.757329 -1435.412639 -1347.861697 1745.547827 1724.492285 -155.986372 -2590.533731 -651.971966 2366.162637 -3002.811465 -497.770569 2660.302469 2339.531022 2137.900746 6150.699569 7813.279769 5383.934610 7765.301242 9115.671544 8816.656090 6898.795291 6407.140657 8297.852610 7908.665405 7421.371577 8753.982407 9215.846072 11577.377431 13743.897578 14869.572837 15119.346115 15119.346115 15119.346115 -808.822113 117.352235 -383.449264 6721.231936 4907.712742 11803.502490 9189.525305 9726.689558 10284.207048 9145.176236 5250.290669 12113.488731 9232.505851 9018.421824 7222.098113 12015.112463 6671.649437 5899.464122 12477.640699 19372.178618 10643.204216 5574.127206 11885.957124 5634.771271 9749.522664 12589.573168 7106.955115 12028.928911 8268.526029 8468.248000 13821.569329 5401.337907 8614.267153 4409.970486 12028.351622 12744.973430 14075.114097 4940.774451 5649.991165 9810.941967 6047.063510 4160.236323 7731.363559 6110.569572 9739.772230 15151.457424 12901.228845 9735.614048 10162.431602 7322.542184 13006.687100 12718.209883 14803.414729 15053.047848 15053.047848 15053.047848 145.475066 80.427741 2270.136464 596.520165 6553.535490 5903.516239 5453.402483 7117.923536 9669.275939 8428.496926 9336.728640 6656.360759 6465.224639 6543.628526 5300.254453 8351.552131 5842.800395 8394.000488 9314.859710 8435.111003 10376.824299 11000.594315 8601.688142 9254.202250 11536.565716 14197.644959 11621.251671 9173.075599 12350.452667 10223.288944 12070.125630 13366.480211 6180.592172 9249.123976 10338.559640 11525.539193 10596.316141 13723.118989 7541.618876 9062.464380 9495.041786 9821.537044 7855.932398 6410.238296 10188.057068 9496.001307 11225.347269 11541.640012 9175.163308 11772.149342 12201.750655 8110.795249 14139.989598 15218.538109 15218.538109 15218.538109 -346.737875 -78.011601 3509.568886 3666.519072 3925.262296 760.038183 6029.850877 3740.904909 7096.553393 7871.333679 7496.869082 6255.023925 6294.606020 8098.663410 8455.276041 7885.210605 5431.085136 8078.983787 6340.603313 6571.383516 6719.968857 8521.559369 8462.994119 8456.602744 7206.328367 4997.787064 9247.071955 7319.267995 10145.945889 9079.491488 10492.519819 12841.730085 11507.927279 9000.541939 8949.377003 9474.606430 11207.502094 10494.352270 11614.437237 8715.304691 9214.817399 10206.931244 8815.570179 12186.413795 10707.391062 13159.446423 13397.474149 12460.668390 11415.636444 13272.946402 9743.504536 8824.842594 14425.966035 15721.554597 15721.554597 15721.554597 341.382222 2405.635631 2260.894396 1778.568790 1263.094724 5536.580044 3926.290226 5964.432868 5549.370105 7356.306217 4665.218747 5511.451902 4793.819748 5850.115868 6919.796101 6997.194358 8270.120240 7312.734887 6422.057822 7969.139916 6208.355717 8888.637635 7007.226101 7375.088483 5625.588277 6629.663167 8604.773428 5142.527414 7641.265849 8098.204505 8751.238241 7140.669162 7645.