<VTKFile type="PolyData">
<PolyData>
<Piece NumberOfPoints="8632" NumberOfVerts="8632" NumberOfLines="0" NumberOfStrips="0" NumberOfPolys="0">
<PointData>
<DataArray type="Float64" Name="Pressure" format="ascii">
 -0.005159 -0.005159 -0.005159 -0.005460 -0.008927 -0.018421 -0.030669 -0.047291 -0.070044 -0.101317 -0.144351 -0.203440 -0.284212 -0.393972 -0.542136 -0.740739 -1.005027 -1.354143 -1.811893 -2.407601 -3.177032 -4.163362 -5.418183 -7.002490 -8.987618 -11.456084 -14.502269 -18.232898 -22.767269 -28.237193 -34.786630 -42.571021 -51.756362 -62.518075 -75.039767 -89.512015 -106.131256 -125.098933 -146.620933 -170.907327 -198.172328 -228.634256 -262.515214 -300.040067 -341.434298 -386.920275 -436.711535 -491.004485 -549.966223 -613.714520 -682.278801 -755.512193 -832.879227 -912.950525 -992.288883 -1063.984042 -1116.981678 -1133.893071 -1086.551968 -952.580949 -770.119993 -616.249755 -482.692772 -326.874578 -193.469239 -154.276319 -179.204435 -185.680645 -127.883777 -56.596488 -43.525212 -50.410878 1.881174 102.452203 170.276062 219.035208 313.994178 422.620470 467.106413 464.172799 495.444159 617.942937 794.993957 941.381960 1059.517259 1232.196879 1530.917040 1936.187916 2375.183970 2856.762354 3455.772572 4207.964423 5058.318076 5913.089965 6727.644538 7510.019168 8265.423992 9006.853715 9736.598480 10407.078083 10982.450050 11475.773524 11917.863772 12329.702432 12726.198715 13116.919939 13529.450294 13847.904937 13913.439936 13913.439936 13913.439936 -0.005159 -0.005159 -0.005159 -0.005460 -0.008927 -0.018421 -0.030669 -0.047291 -0.070044 -0.101317 -0.144351 -0.203440 -0.284212 -0.393972 -0.542136 -0.740739 -1.005027 -1.354143 -1.811893 -2.407601 -3.177032 -4.163362 -5.418183 -7.002490 -8.987618 -11.456084 -14.502269 -18.232898 -22.767269 -28.237193 -34.786630 -42.571021 -51.756362 -62.518075 -75.039767 -89.512015 -106.131256 -125.098933 -146.620933 -170.907327 -198.172328 -228.634256 -262.515214 -300.040067 -341.434298 -386.920275 -436.711535 -491.004485 -549.966223 -613.714520 -682.278801 -755.512193 -832.879227 -912.950525 -992.288883 -1063.984042 -1116.981678 -1133.893071 -1086.551968 -952.580949 -770.119993 -616.249755 -482.692772 -326.874578 -193.469239 -154.276319 -179.204435 -185.680645 -127.883777 -56.596488 -43.525212 -50.410878 1.881174 102.452203 170.276062 219.035208 313.994178 422.620470 467.106413 464.172799 495.444159 617.942937 794.993957 941.381960 1059.517259 1232.196879 1530.917040 1936.187916 2375.183970 2856.762354 3455.772572 4207.964423 5058.318076 5913.089965 6727.644538 7510.019168 8265.423992 9006.853715 9736.598480 10407.078083 10982.450050 11475.773524 11917.863772 12329.702432 12726.198715 13116.919939 13529.450294 13847.904937 13913.439936 13913.439936 13913.439936 -0.005159 -0.005159 -0.005159 -0.005460 -0.008927 -0.018421 -0.030669 -0.047291 -0.070044 -0.101317 -0.144351 -0.203440 -0.284212 -0.393972 -0.542136 -0.740739 -1.005027 -1.354143 -1.811893 -2.407601 -3.177032 -4.163362 -5.418183 -7.002490 -8.987618 -11.456084 -14.502269 -18.232898 -22.767269 -28.237193 -34.786630 -42.571021 -51.756362 -62.518075 -75.039767 -89.512015 -106.131256 -125.098933 -146.620933 -170.907327 -198.172328 -228.634256 -262.515214 -300.040067 -341.434298 -386.920275 -436.711535 -491.004485 -549.966223 -613.714520 -682.278801 -755.512193 -832.879227 -912.950525 -992.288883 -1063.984042 -1116.981678 -1133.893071 -1086.551968 -952.580949 -770.119993 -616.249755 -482.692772 -326.874578 -193.469239 -154.276319 -179.204435 -185.680645 -127.883777 -56.596488 -43.525212 -50.410878 1.881174 102.452203 170.276062 219.035208 313.994178 422.620470 467.106413 464.172799 495.444159 617.942937 794.993957 941.381960 1059.517259 1232.196879 1530.917040 1936.187916 2375.183970 2856.762354 3455.772572 4207.964423 5058.318076 5913.089965 6727.644538 7510.019168 8265.423992 9006.853715 9736.598480 10407.078083 10982.450050 11475.773524 11917.863772 12329.702432 12726.198715 13116.919939 13529.450294 13847.904937 13913.439936 13913.439936 13913.439936 -0.005103 -0.005103 -0.005103 -0.005398 -0.008827 -0.018235 -0.030469 -0.047126 -0.069892 -0.101141 -0.144124 -0.203139 -0.283810 -0.393440 -0.541437 -0.739827 -1.003848 -1.352630 -1.809969 -2.405176 -3.174001 -4.159606 -5.413569 -6.996870 -8.980835 -11.447968 -14.492645 -18.221586 -22.754090 -28.221974 -34.769206 -42.551241 -51.734091 -62.493192 -75.012174 -89.481625 -106.097996 -125.062738 -146.581738 -170.865069 -198.126944 -228.585694 -262.463450 -299.985153 -341.376450 -386.860083 -436.650436 -490.945919 -549.918485 -613.697880 -682.343221 -755.780882 -833.651165 -914.917397 -996.662066 -1072.358129 -1131.246058 -1158.104397 -1120.373653 -995.315839 -770.022791 -612.290771 -492.953611 -321.900343 -154.822642 -132.359810 -185.998313 -210.089028 -134.971091 -35.367946 -36.781483 -73.931510 -19.026143 112.680595 175.108972 196.876464 303.397373 441.991517 479.781253 446.263982 453.283577 586.832302 795.996961 940.667665 1027.299027 1170.272315 1474.454706 1909.390582 2345.548586 2794.545586 3365.354552 4117.183491 4987.080991 5851.697753 6654.510847 7437.698590 8197.601166 8934.730518 9680.643813 10362.175053 10937.156820 11425.973903 11868.512549 12281.032736 12695.689611 13095.248800 13506.036943 13837.061806 13905.694221 13905.694221 13905.694221 -0.004521 -0.004521 -0.004521 -0.004748 -0.007626 -0.015736 -0.027915 -0.045410 -0.068375 -0.099397 -0.141868 -0.200135 -0.279806 -0.388133 -0.534459 -0.730727 -0.992080 -1.337539 -1.790779 -2.380979 -3.143750 -4.122113 -5.367501 -6.940762 -8.913097 -11.366913 -14.396513 -18.108583 -22.622428 -28.069913 -34.595098 -42.353572 -51.511503 -62.244507 -74.736384 -89.177877 -105.765557 -124.700946 -146.189962 -170.442675 -197.673306 -228.100274 -261.945999 -299.436146 -340.797994 -386.257912 -436.038539 -490.357742 -549.434630 -613.515245 -682.947740 -758.376800 -841.211773 -934.543959 -1045.073111 -1167.844841 -1289.927633 -1430.299457 -1646.836217 -1545.763853 -691.458043 -516.942432 -765.696706 -326.964196 432.479704 175.972868 -282.775268 -644.478447 -283.900951 429.037671 94.944021 -456.758356 -437.002644 428.018800 330.521832 -219.563788 76.488756 836.489287 688.962122 226.661243 -147.670588 105.033011 950.075677 1017.309831 653.707604 348.896477 687.983527 1722.068059 2086.742661 2056.589091 2194.258090 2884.932002 4012.290071 4997.313397 5547.335502 6346.942306 7215.370332 7864.970195 8807.711499 9607.216610 10207.991368 10677.010561 11182.065834 11590.634195 12297.999225 12976.602274 13205.562926 13682.283574 13818.495682 13818.495682 13818.495682 -0.003748 -0.003748 -0.003748 -0.003917 -0.005907 -0.011422 -0.022558 -0.042758 -0.066506 -0.097384 -0.139316 -0.196753 -0.275299 -0.382159 -0.526600 -0.720473 -0.978811 -1.320512 -1.769113 -2.353645 -3.109559 -4.079712 -5.315377 -6.877244 -8.836377 -11.275067 -14.287535 -17.980427 -22.473052 -27.897334 -34.397438 -42.129101 -51.258680 -61.961989 -74.423030 -88.832724 -105.387779 -124.289802 -145.744743 -169.962669 -197.157816 -227.548717 -261.358182 -298.812857 -340.142297 -385.578057 -435.354833 -489.719290 -548.960849 -613.499650 -684.118380 -762.553447 -852.991313 -965.909293 -1129.074504 -1303.748799 -1483.081212 -1764.781452 -2296.322115 -1925.632949 -227.727183 -312.792221 -1302.862270 -509.162358 1222.769378 636.996909 -451.239508 -1494.464446 -645.408468 1336.459784 437.917755 -1305.480388 -1411.317307 1276.036122 862.777042 -1391.947919 -486.942029 2026.418914 1234.108400 -60.799816 -1432.623157 -958.444893 1765.191931 1494.313399 187.816042 -1261.645433 -858.791421 2080.967512 2137.358689 1011.194334 116.143071 181.880703 1797.382443 3775.466813 3017.152740 3153.705509 6143.778602 4581.174433 6649.564443 7370.709197 8249.141330 8683.855276 10606.981592 10329.776820 12484.021173 14863.099779 12926.240912 13320.925484 13662.476931 13662.476931 13662.476931 -0.003647 -0.003647 -0.003647 -0.003808 -0.005683 -0.010756 -0.003010 -0.003010 -0.003010 -0.003112 -0.004286 -0.006920 -0.002137 -0.002137 -0.002137 -0.002182 -0.002651 -0.003446 -0.001467 -0.001467 -0.001467 -0.001483 -0.001645 -0.001908 -0.000985 -0.000985 -0.000985 -0.000990 -0.001039 -0.001121 -0.000651 -0.000651 -0.000651 -0.000652 -0.000663 -0.000685 -0.000426 -0.000426 -0.000426 -0.000426 -0.000425 -0.000427 -0.000276 -0.000276 -0.000276 -0.000275 -0.000272 -0.000269 -0.000177 -0.000177 -0.000177 -0.000177 -0.000174 -0.000170 -0.000113 -0.000113 -0.000113 -0.000113 -0.000110 -0.000108 -0.000072 -0.000072 -0.000072 -0.000071 -0.000070 -0.000068 -0.000045 -0.000045 -0.000045 -0.000045 -0.000044 -0.000042 -0.000028 -0.000028 -0.000028 -0.000028 -0.000027 -0.000026 -0.000018 -0.000018 -0.000018 -0.000017 -0.000017 -0.000016 -0.000011 -0.000011 -0.000011 -0.000011 -0.000010 -0.000010 -0.000007 -0.000007 -0.000007 -0.000007 -0.000006 -0.000006 -0.000004 -0.000004 -0.000004 -0.000004 -0.000004 -0.000004 -0.000002 -0.000002 -0.000002 -0.000002 -0.000002 -0.000002 -0.000001 -0.000001 -0.000001 -0.000001 -0.000001 -0.000001 -0.000001 -0.000001 -0.000001 -0.000001 -0.000001 -0.000001 -0.000001 -0.000001 -0.000001 -0.000001 -0.000001 -0.000000 -0.000000 -0.000000 -0.000000 -0.000000 -0.000000 -0.000000 -0.000000 -0.000000 -0.000000 -0.000000 -0.000000 -0.000000 -0.000000 -0.000000 -0.000000 -0.000000 -0.000000 -0.000000 -0.000000 -0.000000 -0.000000 -0.000000 -0.000000 -0.000000 -0.000000 -0.000000 -0.000000 -0.000000 -0.000000 -0.000000 -0.000000 -0.000000 -0.000000 -0.000000 -0.000000 -0.000000 -0.000000 -0.000000 -0.000000 -0.000000 -0.000000 -0.000000 -0.000000 -0.000000 -0.000000 -0.000000 -0.000000 -0.000000 -0.000000 -0.000000 -0.000000 -0.000000 -0.000000 -0.000000 -0.000000 -0.000000 -0.000000 -0.000000 -0.000000 -0.000000 -0.000000 -0.000000 -0.000000 -0.000000 -0.000000 -0.000000 -0.000000 -0.000000 -0.000000 -0.000000 -0.000000 -0.000000 0.000000 0.000000 0.000000 -0.000000 0.000000 0.000000 0.000000 0.000000 0.000000 -0.000000 0.000000 0.000000 0.000000 0.000000 0.000000 -0.000000 0.000000 0.000000 0.000000 0.000000 0.000000 -0.000000 0.000000 0.000000 0.000000 0.000000 0.000000 -0.000000 0.000000 0.000000 0.000000 0.000000 0.000000 0.000000 0.000000 0.000000 0.000000 0.000000 0.000000 -0.000000 -0.000000 0.000000 -0.000000 -0.000000 -0.000000 -0.000000 -0.000000 -0.000000 -0.000000 -0.000000 -0.000000 -0.000000 -0.000000 -0.000000 -0.000000 -0.000000 -0.000000 -0.000000 -0.000000 -0.000000 -0.000000 -0.000000 -0.000000 -0.000000 -0.000000 -0.000000 -0.000000 -0.000000 -0.000000 -0.000000 -0.000000 -0.000000 -0.000000 -0.000000 -0.000000 -0.000000 -0.000000 -0.000000 -0.000000 -0.000000 -0.000000 -0.000000 -0.000000 -0.000000 -0.000000 -0.000000 -0.000000 -0.000000 -0.000000 -0.000000 -0.000000 -0.000000 -0.000000 -0.000000 -0.000000 -0.000000 -0.000000 -0.000000 -0.000000 -0.000000 -0.000000 -0.000000 -0.000000 -0.000000 -0.000000 -0.000000 -0.000000 -0.000000 -0.000000 -0.000000 -0.000000 -0.000000 -0.000000 -0.000000 -0.000000 -0.000000 -0.000000 -0.000000 -0.000000 -0.000000 -0.000000 -0.000000 -0.000000 -0.000000 -0.000000 -0.000000 -0.000000 -0.000000 -0.000000 -0.000000 -0.000000 -0.000000 -0.000000 -0.000000 -0.000000 -0.000000 -0.000000 -0.000000 -0.000000 -0.000000 -0.000000 -0.000000 -0.000000 -0.000000 -0.000000 -0.000000 -0.000000 -0.000000 -0.000000 -0.000000 -0.000000 -0.000000 -0.000000 -0.000000 -0.000000 -0.000000 -0.000000 -0.000000 -0.000000 -0.000000 -0.000000 -0.000000 -0.000000 -0.000000 -0.000000 -0.000000 -0.000000 -0.000000 -0.000000 -0.000000 -0.000000 -0.000000 -0.000000 -0.000000 -0.000000 -0.000000 -0.000000 -0.000000 -0.000000 -0.000000 -0.000000 -0.000000 -0.000000 -0.000000 -0.000000 -0.000000 -0.000000 -0.000000 -0.000000 -0.000000 -0.000000 -0.000000 -0.000000 -0.000000 -0.000000 -0.000000 -0.000000 -0.000000 -0.000000 -0.000000 -0.000000 -0.000000 -0.000000 -0.000000 -0.000000 -0.000000 -0.000000 -0.000000 -0.000000 -0.000000 -0.000000 -0.000000 -0.000000 -0.000000 -0.000000 -0.000000 -0.000000 -0.000000 -0.000000 -0.000000 -0.000000 -0.000000 -0.000000 -0.000000 -0.000000 -0.000000 -0.000000 -0.000000 -0.000000 -0.000000 -0.000000 -0.000000 -0.000000 -0.000000 -0.000000 -0.000000 -0.000000 -0.000000 -0.000000 -0.000000 -0.000000 -0.000000 -0.000000 -0.000000 -0.000000 -0.000000 -0.000000 -0.000000 -0.000000 -0.000000 -0.000000 -0.000000 -0.000000 -0.000000 -0.000000 -0.000000 -0.000000 -0.000000 -0.000000 -0.000000 -0.000000 -0.000000 -0.000000 -0.000000 -0.000000 -0.000000 -0.000000 -0.000000 -0.000000 -0.000000 -0.000000 -0.000000 -0.000000 -0.000000 -0.000000 -0.000000 -0.000000 -0.000000 -0.000000 -0.000000 -0.000000 -0.000000 -0.000000 -0.000000 -0.000000 -0.000000 -0.000000 -0.000000 -0.000000 -0.000000 -0.000000 -0.000000 -0.000000 -0.000000 -0.000000 -0.000000 -0.000000 -0.000000 -0.000000 -0.000000 -0.000000 -0.000000 -0.000000 -0.000000 -0.000000 -0.000000 -0.000000 -0.000000 -0.000000 -0.000000 -0.000000 -0.000000 -0.000000 -0.000000 -0.000000 -0.000000 -0.000000 -0.000000 -0.000000 -0.000000 -0.000000 -0.000000 -0.000000 -0.000000 -0.000000 -0.000000 -0.000000 -0.000000 -0.000000 -0.000000 -0.000000 -0.000000 -0.000000 -0.000000 -0.000000 -0.000000 -0.000000 -0.000000 -0.000000 -0.000000 -0.000000 -0.000000 -0.000000 -0.000000 -0.000000 -0.000000 -0.000000 -0.000000 -0.000000 -0.000000 -0.000000 -0.000000 -0.000000 -0.000000 -0.000000 -0.000000 -0.000000 -0.000000 -0.000000 -0.000000 -0.000000 -0.000000 -0.000000 -0.000000 -0.000000 -0.000000 -0.000000 -0.000000 -0.000000 -0.000000 -0.000000 -0.000000 -0.000000 -0.000000 -0.000000 -0.000000 -0.000000 -0.000000 -0.000000 -0.000000 -0.000000 -0.000000 -0.000000 -0.000000 -0.000000 -0.000000 -0.000000 -0.000000 -0.000000 -0.000000 -0.000000 -0.000000 -0.000000 -0.000000 -0.000000 -0.000000 -0.000000 -0.000000 -0.000000 -0.000000 -0.000000 -0.000000 -0.000000 -0.000000 -0.000000 -0.000000 -0.000000 -0.000000 -0.000000 -0.000000 -0.000000 -0.000000 -0.000000 -0.000000 -0.000000 -0.000000 -0.000000 -0.000000 -0.000000 -0.000000 -0.000000 -0.000000 -0.000000 -0.000000 -0.000000 -0.000000 -0.000000 -0.000000 -0.000000 -0.000000 -0.000000 -0.000000 -0.000000 -0.000000 -0.000000 -0.000000 -0.000000 -0.000000 -0.000000 -0.000000 -0.000000 -0.000000 -0.000000 -0.000000 -0.000000 -0.000000 -0.000000 -0.000000 -0.000000 -0.000000 -0.000000 -0.000000 -0.000000 -0.000000 -0.000000 -0.000000 -0.000000 -0.000000 -0.000000 -0.000000 -0.000000 -0.000000 -0.000000 -0.000000 -0.000000 -0.000000 -0.000000 -0.000000 -0.000000 -0.000000 -0.000000 -0.000000 -0.000000 -0.000000 -0.000000 -0.000000 -0.000000 -0.000000 -0.000000 -0.000000 -0.000000 -0.000000 -0.000000 -0.000000 -0.000000 -0.000000 -0.000000 -0.000000 -0.000000 -0.000000 -0.000000 -0.000000 -0.000000 -0.000000 -0.000000 -0.000000 -0.000000 -0.000000 -0.000000 -0.000000 -0.000000 -0.000000 -0.000000 -0.000000 -0.000000 -0.000000 -0.000000 -0.000000 -0.000000 -0.000000 -0.000000 -0.000000 -0.000000 -0.000000 -0.000000 -0.000000 -0.000000 -0.000000 -0.000000 -0.000000 -0.000000 -0.000000 -0.000000 -0.000000 -0.000000 -0.000000 -0.000000 -0.000000 -0.000000 -0.000000 -0.000000 -0.000000 -0.000000 -0.000000 -0.000000 -0.000000 -0.000000 -0.000000 -0.000000 -0.000000 -0.000000 -0.000000 -0.000000 -0.000000 -0.000000 -0.000000 -0.000000 -0.000000 -0.000000 -0.000000 -0.000000 -0.000000 -0.000000 -0.000000 -0.000000 -0.000000 -0.000000 -0.000000 -0.000000 -0.000000 -0.000000 -0.000000 -0.000000 -0.000000 -0.000000 -0.000000 -0.000000 -0.000000 -0.000000 -0.000000 -0.000000 -0.000000 -0.000000 -0.000000 -0.000000 -0.000000 -0.000000 -0.000000 -0.000000 -0.000000 -0.000000 -0.000000 -0.000000 -0.000000 -0.000000 -0.000000 -0.000000 -0.000000 -0.000000 -0.000000 -0.000000 -0.000000 -0.000000 -0.000000 -0.000000 -0.000000 -0.000000 -0.000000 -0.000000 -0.000000 -0.000000 -0.000000 -0.000000 -0.000000 -0.000000 -0.000000 -0.000000 -0.000000 -0.000000 -0.000000 -0.000000 -0.000000 -0.000000 -0.000000 -0.000000 -0.000000 -0.000000 -0.000000 -0.000000 -0.000000 -0.000000 -0.000000 -0.000000 -0.000000 -0.000000 -0.000000 -0.000000 -0.000000 -0.000000 -0.000000 -0.000000 -0.000000 -0.000000 -0.000000 -0.000000 -0.000000 -0.000000 -0.000000 -0.000000 -0.000000 -0.000000 -0.000000 -0.000000 -0.000000 -0.000000 -0.000000 -0.000000 -0.000000 -0.000000 -0.000000 -0.000000 -0.000000 -0.000000 -0.000000 -0.000000 -0.000000 -0.000000 -0.000000 -0.000000 -0.000000 -0.000000 -0.000000 -0.000000 -0.000000 -0.000000 -0.000000 -0.000000 -0.000000 -0.000000 -0.000000 -0.000000 -0.000000 -0.000000 -0.000000 -0.000000 -0.000000 -0.000000 -0.000000 -0.000000 -0.000000 -0.000000 -0.000000 -0.000000 -0.000000 -0.000000 -0.000000 -0.000000 -0.000000 -0.000000 -0.000000 -0.000000 -0.000000 -0.000000 -0.000000 -0.000000 -0.000000 -0.000000 -0.000000 -0.000000 -0.000000 -0.000000 -0.000000 -0.000000 -0.000000 -0.000000 -0.000000 -0.000000 -0.000000 -0.000000 -0.000000 -0.000000 -0.000000 -0.000000 -0.000000 -0.000000 -0.000000 -0.000000 -0.000000 -0.000000 -0.000000 -0.000000 -0.000000 -0.000000 -0.000000 -0.000000 -0.000000 -0.000000 -0.000000 -0.000000 -0.000000 -0.000000 -0.000000 -0.000000 -0.000000 -0.000000 -0.000000 -0.000000 -0.000000 -0.000000 -0.000000 -0.000000 -0.000000 -0.000000 -0.000000 -0.000000 -0.000000 -0.000000 -0.000000 -0.000000 -0.000000 -0.000000 -0.000000 -0.000000 -0.000000 -0.000000 -0.000000 -0.000000 -0.000000 -0.000000 -0.000000 -0.000000 -0.000000 -0.000000 -0.000000 -0.000000 -0.000000 0.000000 -0.000000 -0.000000 -0.000000 -0.000000 -0.000000 -0.000000 -0.000000 -0.000000 -0.000000 -0.000000 -0.000000 -0.000000 -0.000000 -0.000000 -0.000000 -0.000000 -0.000000 -0.000000 -0.000000 -0.000000 -0.000000 -0.000000 -0.000000 -0.000000 -0.000000 -0.000000 -0.000000 -0.000000 -0.000000 -0.000000 -0.000000 -0.000000 -0.000000 -0.000000 -0.000000 -0.000000 -0.000000 -0.000000 -0.000000 -0.000000 -0.000000 -0.000000 -0.000000 -0.000000 -0.000000 -0.000000 -0.000000 -0.000000 -0.000000 -0.000000 -0.000000 -0.000000 -0.000000 -0.000000 -0.000000 -0.000000 -0.000000 -0.000000 -0.000000 -0.000000 -0.000000 -0.000000 -0.000000 -0.000000 -0.000000 -0.000000 -0.000000 -0.000000 -0.000000 -0.000000 -0.000000 -0.000000 -0.000000 -0.000000 -0.000000 -0.000000 -0.000000 -0.000000 -0.000000 -0.000000 -0.000000 -0.000000 -0.000000 -0.000000 -0.000000 -0.000000 -0.000000 -0.000000 -0.000000 -0.000000 -0.000000 -0.000000 -0.000000 -0.000000 -0.000000 -0.000000 -0.000000 -0.000000 -0.000000 -0.000000 -0.000000 -0.000000 -0.000000 -0.000000 -0.000000 -0.000000 -0.000000 -0.000000 -0.000000 -0.000000 -0.000000 -0.000000 -0.000000 -0.000000 -0.000000 -0.000000 -0.000000 -0.000000 -0.000000 -0.000000 -0.000000 -0.000000 -0.000000 -0.000000 -0.000000 -0.000000 -0.000000 -0.000000 -0.000000 -0.000000 -0.000000 -0.000000 -0.000000 -0.000000 -0.000000 -0.000000 -0.000000 -0.000000 -0.000000 -0.000000 -0.000000 -0.000000 -0.000000 -0.000000 -0.000000 -0.000000 -0.000000 -0.000000 -0.000000 -0.000000 -0.000000 -0.000000 -0.000000 -0.000000 -0.000000 -0.000000 -0.000000 -0.000000 -0.000000 -0.000000 -0.000000 -0.000000 -0.000000 -0.000000 -0.000000 -0.000000 -0.000000 -0.000000 -0.000000 -0.000000 -0.000000 -0.000000 -0.000000 -0.000000 -0.000000 -0.000000 -0.000000 -0.000000 -0.000000 -0.000000 -0.000000 -0.000000 -0.000000 -0.000000 -0.000000 -0.000000 -0.000000 -0.000000 -0.000000 -0.000000 -0.000000 -0.000000 -0.000000 -0.000000 -0.000000 -0.000000 -0.000000 -0.000000 -0.000000 -0.000000 -0.000000 -0.000000 -0.000000 -0.000000 -0.000000 -0.000000 -0.000000 -0.000000 -0.000000 -0.000000 -0.000000 -0.000000 -0.000000 -0.000000 -0.000000 -0.000000 -0.000000 -0.000000 -0.000000 -0.000000 -0.000000 -0.000000 -0.000000 -0.000000 -0.000000 -0.000000 -0.000000 -0.000000 -0.000000 -0.000000 -0.000000 -0.000000 -0.000000 -0.000000 -0.000000 0.000000 0.000000 0.000000 -0.000000 -0.000000 -0.000000 -0.000000 -0.000000 -0.000000 -0.000000 -0.000000 -0.000000 -0.000000 -0.000001 -0.000001 -0.000001 -0.000002 -0.000004 -0.000006 -0.000010 -0.000015 -0.000023 -0.000036 -0.000055 -0.000083 -0.000124 -0.000185 -0.000272 -0.000398 -0.000576 -0.000826 -0.001173 -0.001647 -0.002287 -0.003136 -0.004245 -0.005663 -0.007435 -0.009582 -0.012085 -0.014841 -0.017619 -0.019970 -0.021116 -0.019781 -0.013964 -0.000617 0.024779 0.068783 0.140743 0.253761 0.425925 0.681855 1.054630 1.588135 2.339892 3.384428 4.817207 6.759156 9.361789 12.812864 17.342514 23.229644 30.808332 40.473823 52.687535 67.980458 86.954286 110.279988 138.694225 172.995297 214.041960 262.759852 320.159974 387.369186 465.660102 556.441548 661.123124 780.689727 914.719177 1059.518962 1205.275584 1333.028257 1415.300352 1434.207537 1554.338013 2075.821041 2213.808150 2140.456840 3128.295363 4730.035598 5295.797341 6961.210082 10126.964285 9320.775433 10184.802644 10416.516825 11330.854236 13037.891542 12991.107116 12874.599994 15478.456216 16590.753366 15931.761404 15078.924541 16281.465012 14974.320792 13295.853769 13105.831696 13105.831696 13105.831696 0.000000 0.000000 0.000000 0.000000 -0.000000 -0.000000 -0.000000 -0.000000 -0.000000 -0.000000 -0.000000 -0.000000 -0.000000 -0.000001 -0.000001 -0.000002 -0.000002 -0.000004 -0.000006 -0.000010 -0.000015 -0.000024 -0.000037 -0.000056 -0.000084 -0.000127 -0.000188 -0.000278 -0.000406 -0.000587 -0.000841 -0.001192 -0.001671 -0.002317 -0.003174 -0.004291 -0.005716 -0.007491 -0.009637 -0.012125 -0.014849 -0.017564 -0.019804 -0.020766 -0.019143 -0.012886 0.001115 0.027462 0.072823 0.146689 0.262341 0.438093 0.698851 1.078036 1.619950 2.382612 3.441128 4.891627 6.855794 9.485976 12.970837 17.541455 23.477681 31.114481 40.847837 53.139662 68.521092 87.593560 111.027405 139.558512 173.984714 215.165275 264.027989 321.587892 388.977069 467.473299 558.492700 663.474891 783.538757 918.740100 1066.788896 1221.356292 1370.908667 1500.966469 1609.746490 1741.324405 1952.931861 2232.431839 2563.918221 3185.859400 4065.603347 4846.086685 6213.310958 7591.542048 7762.645753 8243.810610 8511.713570 9320.838475 10279.315059 10578.625451 10854.549139 11966.549439 13291.464747 14155.071061 14919.808399 16537.609207 15117.718719 13120.293718 12859.669927 12859.669927 12859.669927 0.000000 0.000000 0.000000 -0.000000 -0.000000 -0.000000 -0.000000 -0.000000 -0.000000 -0.000000 -0.000000 -0.000000 -0.000000 -0.000001 -0.000001 -0.000002 -0.000003 -0.000004 -0.000006 -0.000010 -0.000016 -0.000025 -0.000038 -0.000057 -0.000087 -0.000130 -0.000193 -0.000284 -0.000415 -0.000599 -0.000857 -0.001213 -0.001699 -0.002353 -0.003218 -0.004343 -0.005776 -0.007555 -0.009697 -0.012169 -0.014854 -0.017493 -0.019602 -0.020350 -0.018390 -0.011620 0.003142 0.030594 0.077530 0.153604 0.272305 0.452209 0.718544 1.105131 1.656748 2.431982 3.506603 4.977506 6.967236 9.629098 13.152786 17.770456 23.763033 31.466485 41.277625 53.658916 69.141652 88.326971 111.884526 140.549388 175.118980 216.453312 265.482789 323.227089 390.823934 469.555670 560.842501 666.145135 786.695244 922.977134 1073.981356 1236.539796 1405.583994 1576.779025 1752.822587 1950.375475 2196.345410 2512.116857 2915.287065 3420.485786 4010.968441 4665.084306 5392.797181 6109.197366 6721.136826 7285.450314 7840.751357 8420.377924 8967.176347 9429.539414 9871.119381 10354.712616 10846.705668 11320.488776 11956.601526 12716.920882 12810.233968 12675.391620 12677.624413 12677.624413 12677.624413 -0.000000 -0.000000 -0.000000 -0.000000 -0.000000 -0.000000 -0.000000 -0.000000 -0.000000 -0.000000 -0.000000 -0.000000 -0.000000 -0.000001 -0.000001 -0.000002 -0.000003 -0.000004 -0.000006 -0.000010 -0.000016 -0.000025 -0.000038 -0.000058 -0.000087 -0.000131 -0.000194 -0.000285 -0.000416 -0.000601 -0.000860 -0.001217 -0.001704 -0.002359 -0.003226 -0.004352 -0.005786 -0.007566 -0.009707 -0.012176 -0.014854 -0.017480 -0.019565 -0.020274 -0.018253 -0.011390 0.003510 0.031162 0.078383 0.154855 0.274106 0.454758 0.722099 1.110019 1.663383 2.440880 3.518399 4.992971 6.987298 9.654853 13.185516 17.811636 23.814330 31.529742 41.354835 53.752169 69.253063 88.458604 112.038326 140.727161 175.322473 216.684420 265.743891 323.521389 391.155605 469.929548 561.263681 666.621064 787.249340 923.697510 1075.153356 1238.935294 1410.947624 1588.250879 1774.120385 1982.626602 2236.428645 2557.477313 2960.446582 3449.864073 4014.993126 4641.418899 5315.671536 5986.885350 6607.978982 7191.313269 7758.903035 8321.945144 8850.627367 9321.495801 9757.303558 10184.608397 10600.367024 11030.992813 11541.723963 12065.203723 12436.573554 12617.134544 12647.738714 12647.738714 12647.738714 -0.000000 -0.000000 -0.000000 -0.000000 -0.000000 -0.000000 -0.000000 -0.000000 -0.000000 -0.000000 -0.000000 -0.000000 -0.000000 -0.000001 -0.000001 -0.000002 -0.000003 -0.000004 -0.000006 -0.000010 -0.000016 -0.000025 -0.000038 -0.000058 -0.000087 -0.000131 -0.000194 -0.000285 -0.000416 -0.000601 -0.000860 -0.001217 -0.001704 -0.002359 -0.003226 -0.004352 -0.005786 -0.007566 -0.009707 -0.012176 -0.014854 -0.017480 -0.019565 -0.020274 -0.018253 -0.011390 0.003510 0.031162 0.078383 0.154855 0.274106 0.454758 0.722099 1.110019 1.663383 2.440880 3.518399 4.992971 6.987298 9.654853 13.185516 17.811636 23.814330 31.529742 41.354835 53.752169 69.253063 88.458604 112.038326 140.727161 175.322473 216.684420 265.743891 323.521389 391.155605 469.929548 561.263681 666.621064 787.249340 923.697510 1075.153356 1238.935294 1410.947624 1588.250879 1774.120385 1982.626602 2236.428645 2557.477313 2960.446582 3449.864073 4014.993126 4641.418899 5315.671536 5986.885350 6607.978982 7191.313269 7758.903035 8321.945144 8850.627367 9321.495801 9757.303558 10184.608397 10600.367024 11030.992813 11541.723963 12065.203723 12436.573554 12617.134544 12647.738714 12647.738714 12647.738714 -0.000000 -0.000000 -0.000000 -0.000000 -0.000000 -0.000000 -0.000000 -0.000000 -0.000000 -0.000000 -0.000000 -0.000000 -0.000000 -0.000001 -0.000001 -0.000002 -0.000003 -0.000004 -0.000006 -0.000010 -0.000016 -0.000025 -0.000038 -0.000058 -0.000087 -0.000131 -0.000194 -0.000285 -0.000416 -0.000601 -0.000860 -0.001217 -0.001704 -0.002359 -0.003226 -0.004352 -0.005786 -0.007566 -0.009707 -0.012176 -0.014854 -0.017480 -0.019565 -0.020274 -0.018253 -0.011390 0.003510 0.031162 0.078383 0.154855 0.274106 0.454758 0.722099 1.110019 1.663383 2.440880 3.518399 4.992971 6.987298 9.654853 13.185516 17.811636 23.814330 31.529742 41.354835 53.752169 69.253063 88.458604 112.038326 140.727161 175.322473 216.684420 265.743891 323.521389 391.155605 469.929548 561.263681 666.621064 787.249340 923.697510 1075.153356 1238.935294 1410.947624 1588.250879 1774.120385 1982.626602 2236.428645 2557.477313 2960.446582 3449.864073 4014.993126 4641.418899 5315.671536 5986.885350 6607.978982 7191.313269 7758.903035 8321.945144 8850.627367 9321.495801 9757.303558 10184.608397 10600.367024 11030.992813 11541.723963 12065.203723 12436.573554 12617.134544 12647.738714 12647.738714 12647.738714 -1349.463349 -1545.774334 -1882.911928 -2403.642555 -1532.531057 40.900364 -516.651230 -1408.247581 -109.318758 1340.914408 423.100526 -708.352664 -1694.600912 -188.029362 1495.311431 98.334419 -1745.740208 -1057.668728 1732.532869 396.146914 -1844.958840 129.113109 2346.298737 998.458585 -390.567401 -1896.899995 -496.626157 2234.877820 1292.960201 -165.700331 -1797.340576 -424.069516 2601.725556 1958.810613 443.969132 -642.316792 -68.762950 1782.538880 4096.154999 1773.652672 3178.812294 5448.179042 3784.971069 6731.718956 6892.420255 7761.713083 8652.365622 10784.700896 10016.599480 14066.388531 14810.542179 12446.193204 13365.594491 13632.423363 13632.423363 13632.423363 -1822.589888 153.681927 -337.592240 7554.452263 10962.307390 15696.500443 11030.402818 12701.439727 13105.932248 12286.130391 11729.129890 8752.131821 14366.069387 8666.658362 8698.602779 10086.879189 7966.317573 11195.307638 8899.500590 8775.856969 8328.267998 9028.193166 10201.776957 9176.650514 10159.188506 9646.142245 9243.095781 20060.068418 9329.003308 8923.735267 10617.327738 14403.696987 10508.983523 9114.066716 11257.216605 9830.064092 7649.066973 9049.224138 6494.129253 11297.214782 10247.761946 6820.147905 9173.835364 9764.761903 7890.270028 9820.708167 10032.398572 9852.014123 10639.440391 10928.931018 11002.113122 6816.394930 12619.742251 13478.850242 13478.850242 13478.850242 140.716533 109.507566 2208.765256 2239.075798 5780.770831 5139.662470 9542.320341 11227.833039 11725.208895 10559.434569 8602.104885 8246.775420 7567.032268 5997.060199 7799.390428 9702.211151 4578.307115 3226.513357 7092.797924 9892.336599 9265.721055 19739.832872 11380.993753 10289.415046 9104.333760 11889.938071 7150.564381 9362.140155 9295.255140 8810.657221 8158.935087 8481.750130 7601.729813 8058.249428 10426.808851 8459.138303 7810.693307 9023.764199 10735.444676 11071.425173 8930.776540 7775.070679 8168.843045 9711.652589 8281.333114 10377.048204 9497.899622 10237.474071 11404.779105 11348.210826 10660.834057 9068.452594 12992.921787 13549.666644 13549.666644 13549.666644 -270.947225 -656.139759 2425.731518 3377.571546 4439.764907 1502.089124 4540.714827 4735.789887 9509.446550 8002.664041 4746.744884 9797.863499 6744.569470 4587.837171 10658.272812 4718.328344 7461.787219 8316.811602 5184.434097 7652.952495 6257.755422 4068.672120 7738.781067 8921.235704 9891.818653 5658.585632 7899.879014 7549.288628 7943.972522 10018.040473 7910.452470 10411.313964 10270.670985 10181.001344 7065.679439 8426.562462 10931.610560 7541.359319 8128.890836 8470.314876 8101.525243 7515.132995 8829.221004 11642.020902 9610.942416 10858.778222 11873.882276 11180.823469 9498.458386 11535.342590 10302.586189 16403.494897 14342.847110 13795.187653 13795.187653 13795.187653 1077.215867 -833.627457 -1891.256899 567.188094 1234.452450 3045.529693 2767.418259 4273.034554 2563.808349 4960.626784 1479.717452 2498.168202 4261.148572 9397.511756 4780.617427 9026.923300 2828.550570 3764.843341 3602.683138 3427.543010 3315.724304 4113.737888 8091.113474 4776.068862 8418.315872 5761.837795 8144.502540 5419.958097 8920.1