<VTKFile type="PolyData">
<PolyData>
<Piece NumberOfPoints="8632" NumberOfVerts="8632" NumberOfLines="0" NumberOfStrips="0" NumberOfPolys="0">
<PointData>
<DataArray type="Float64" Name="Pressure" format="ascii">
 -0.126720 -0.126720 -0.126720 -0.130743 -0.176321 -0.296955 -0.441444 -0.619466 -0.838199 -1.107111 -1.438586 -1.847781 -2.352697 -2.974463 -3.737716 -4.671039 -5.807433 -7.184791 -8.846383 -10.841335 -13.225084 -16.059817 -19.414866 -23.367066 -28.001043 -33.409449 -39.693108 -46.961078 -55.330620 -64.927047 -75.883467 -88.340380 -102.445130 -118.351195 -136.217267 -156.206125 -178.483243 -203.215093 -230.567118 -260.701304 -293.773332 -329.929278 -369.301842 -412.006144 -458.135124 -507.754616 -560.898100 -617.560903 -677.692875 -741.186641 -807.853751 -877.369608 -949.141117 -1021.998015 -1093.527223 -1159.287194 -1212.755494 -1244.554602 -1238.997974 -1169.124539 -1018.377663 -838.382503 -698.185319 -574.882871 -422.085924 -283.778001 -231.146413 -239.661321 -235.670294 -172.956570 -92.782970 -76.047342 -108.045972 -109.361128 -44.067486 22.689239 36.120941 50.929813 125.890011 214.914193 237.704495 211.409908 218.581527 317.368933 472.974386 596.498654 681.252318 804.023132 1048.472225 1425.740021 1847.727289 2235.558530 2589.099580 2950.872930 3368.011870 3873.564613 4475.801548 5151.614013 5851.064359 6537.956041 7214.363905 7890.373710 8545.725311 9140.118246 9656.691587 10098.706316 10463.318930 10680.418802 10719.222577 10719.222577 10719.222577 -0.126720 -0.126720 -0.126720 -0.130743 -0.176321 -0.296955 -0.441444 -0.619466 -0.838199 -1.107111 -1.438586 -1.847781 -2.352697 -2.974463 -3.737716 -4.671039 -5.807433 -7.184791 -8.846383 -10.841335 -13.225084 -16.059817 -19.414866 -23.367066 -28.001043 -33.409449 -39.693108 -46.961078 -55.330620 -64.927047 -75.883467 -88.340380 -102.445130 -118.351195 -136.217267 -156.206125 -178.483243 -203.215093 -230.567118 -260.701304 -293.773332 -329.929278 -369.301842 -412.006144 -458.135124 -507.754616 -560.898100 -617.560903 -677.692875 -741.186641 -807.853751 -877.369608 -949.141117 -1021.998015 -1093.527223 -1159.287194 -1212.755494 -1244.554602 -1238.997974 -1169.124539 -1018.377663 -838.382503 -698.185319 -574.882871 -422.085924 -283.778001 -231.146413 -239.661321 -235.670294 -172.956570 -92.782970 -76.047342 -108.045972 -109.361128 -44.067486 22.689239 36.120941 50.929813 125.890011 214.914193 237.704495 211.409908 218.581527 317.368933 472.974386 596.498654 681.252318 804.023132 1048.472225 1425.740021 1847.727289 2235.558530 2589.099580 2950.872930 3368.011870 3873.564613 4475.801548 5151.614013 5851.064359 6537.956041 7214.363905 7890.373710 8545.725311 9140.118246 9656.691587 10098.706316 10463.318930 10680.418802 10719.222577 10719.222577 10719.222577 -0.126720 -0.126720 -0.126720 -0.130743 -0.176321 -0.296955 -0.441444 -0.619466 -0.838199 -1.107111 -1.438586 -1.847781 -2.352697 -2.974463 -3.737716 -4.671039 -5.807433 -7.184791 -8.846383 -10.841335 -13.225084 -16.059817 -19.414866 -23.367066 -28.001043 -33.409449 -39.693108 -46.961078 -55.330620 -64.927047 -75.883467 -88.340380 -102.445130 -118.351195 -136.217267 -156.206125 -178.483243 -203.215093 -230.567118 -260.701304 -293.773332 -329.929278 -369.301842 -412.006144 -458.135124 -507.754616 -560.898100 -617.560903 -677.692875 -741.186641 -807.853751 -877.369608 -949.141117 -1021.998015 -1093.527223 -1159.287194 -1212.755494 -1244.554602 -1238.997974 -1169.124539 -1018.377663 -838.382503 -698.185319 -574.882871 -422.085924 -283.778001 -231.146413 -239.661321 -235.670294 -172.956570 -92.782970 -76.047342 -108.045972 -109.361128 -44.067486 22.689239 36.120941 50.929813 125.890011 214.914193 237.704495 211.409908 218.581527 317.368933 472.974386 596.498654 681.252318 804.023132 1048.472225 1425.740021 1847.727289 2235.558530 2589.099580 2950.872930 3368.011870 3873.564613 4475.801548 5151.614013 5851.064359 6537.956041 7214.363905 7890.373710 8545.725311 9140.118246 9656.691587 10098.706316 10463.318930 10680.418802 10719.222577 10719.222577 10719.222577 -0.125716 -0.125716 -0.125716 -0.129648 -0.174799 -0.294465 -0.439021 -0.617771 -0.837003 -1.106038 -1.437422 -1.846411 -2.351049 -2.972476 -3.735328 -4.668188 -5.804049 -7.180797 -8.841697 -10.835867 -13.218738 -16.052492 -19.406456 -23.357459 -27.990125 -33.397104 -39.679218 -46.945527 -55.313291 -64.907828 -75.862251 -88.317068 -102.419632 -118.323433 -136.187178 -156.173666 -178.448393 -203.177860 -230.527543 -260.659468 -293.729365 -329.883367 -369.254245 -411.957214 -458.085359 -507.704777 -560.849500 -617.516129 -677.657608 -741.174203 -807.896433 -877.546435 -949.642701 -1023.260388 -1096.275564 -1164.379941 -1221.232707 -1259.185427 -1264.102104 -1200.079726 -1003.057866 -808.026556 -696.762073 -591.788835 -426.717850 -252.279225 -211.922527 -245.131960 -257.979794 -182.149584 -67.833980 -58.431426 -119.093117 -135.168377 -46.175614 41.533981 34.357273 25.059049 116.852846 237.966576 255.152569 199.173349 182.826865 292.998471 483.897115 610.760632 668.168092 759.576200 997.147616 1409.205533 1861.495687 2247.407566 2582.966169 2924.158980 3328.277542 3832.935016 4445.058082 5144.064052 5862.817621 6553.366350 7230.676968 7920.834421 8597.332375 9191.919611 9690.648262 10121.841852 10481.194713 10691.357702 10728.386364 10728.386364 10728.386364 -0.114968 -0.114968 -0.114968 -0.118037 -0.156416 -0.261112 -0.407739 -0.599882 -0.824995 -1.095362 -1.425820 -1.832745 -2.334594 -2.952629 -3.711490 -4.639720 -5.770252 -7.140909 -8.794889 -10.781243 -13.155343 -15.979310 -19.322423 -23.261468 -27.881034 -33.273748 -39.540421 -46.790115 -55.140109 -64.715755 -75.650217 -88.084074 -102.164779 -118.045940 -135.886421 -155.849207 -178.100024 -202.805656 -230.131912 -260.241221 -293.289791 -329.424329 -368.778314 -411.467905 -457.587616 -507.206111 -560.362795 -617.066659 -677.300667 -741.039319 -808.297875 -879.257600 -954.566801 -1035.916975 -1127.188478 -1223.079212 -1314.712355 -1420.548245 -1550.135311 -1584.298745 -871.040052 -280.967945 -617.612276 -943.612141 -507.556200 241.563235 52.584736 -319.806361 -641.580660 -380.707469 395.182638 225.551982 -273.429403 -612.796235 -74.193795 467.385284 16.962281 -419.883525 -76.023552 670.535004 522.359362 44.258880 -335.062598 -116.558215 743.611639 864.478090 529.172681 178.232211 245.794115 1218.208612 2119.479939 2421.658886 2497.943861 2573.253373 2833.023149 3350.814855 4087.900261 5111.083651 6098.760126 6795.141516 7400.838165 8236.786426 9196.485219 9732.457802 9919.886813 10229.062234 10617.578466 10796.378375 10815.712416 10815.712416 10815.712416 -0.100213 -0.100213 -0.100213 -0.102553 -0.129674 -0.202601 -0.340224 -0.570254 -0.809082 -1.082500 -1.412410 -1.817174 -2.315930 -2.930144 -3.684490 -4.607470 -5.731958 -7.095703 -8.741827 -10.719309 -13.083447 -15.896299 -19.227085 -23.152541 -27.757220 -33.133720 -39.382841 -46.613647 -54.943436 -64.497600 -75.409359 -87.819378 -101.875214 -117.730617 -135.544621 -155.480427 -177.704022 -202.382506 -229.682072 -259.765606 -292.789866 -328.902229 -368.237027 -410.911600 -457.022364 -506.641591 -559.816501 -616.574440 -676.943183 -741.008426 -809.063418 -881.989094 -962.221245 -1056.271555 -1181.970587 -1307.721767 -1427.804913 -1612.758020 -1925.928368 -2367.212890 -1409.067527 44.974721 -540.091713 -1508.351718 -606.695736 993.955891 452.973671 -432.804787 -1340.277356 -826.600661 1167.621257 743.824320 -586.531341 -1669.222524 -150.495311 1512.154151 92.811217 -1621.876843 -634.811936 1957.780609 1169.153846 -156.441925 -1526.105304 -1192.857288 1719.566647 1628.527089 372.441451 -825.966973 -1664.811828 1065.144730 3113.271083 2699.631814 2371.694291 1881.373937 1943.024181 2944.127230 3443.723767 5165.269014 6986.107395 7179.011200 7185.599424 7844.463639 9896.275242 10089.747577 9016.763204 9540.273514 10716.868785 10864.752315 10885.664155 10885.664155 10885.664155 -0.098217 -0.098217 -0.098217 -0.100451 -0.126115 -0.193488 -0.085051 -0.085051 -0.085051 -0.086489 -0.102891 -0.138970 -0.065913 -0.065913 -0.065913 -0.066547 -0.073263 -0.084646 -0.049997 -0.049997 -0.049997 -0.050234 -0.052586 -0.056447 -0.037418 -0.037418 -0.037418 -0.037489 -0.038169 -0.039364 -0.027746 -0.027746 -0.027746 -0.027756 -0.027844 -0.028103 -0.020429 -0.020429 -0.020429 -0.020420 -0.020324 -0.020276 -0.014953 -0.014953 -0.014953 -0.014940 -0.014806 -0.014678 -0.010886 -0.010886 -0.010886 -0.010874 -0.010750 -0.010620 -0.007886 -0.007886 -0.007886 -0.007876 -0.007774 -0.007664 -0.005684 -0.005684 -0.005684 -0.005676 -0.005598 -0.005511 -0.004077 -0.004077 -0.004077 -0.004072 -0.004012 -0.003946 -0.002911 -0.002911 -0.002911 -0.002907 -0.002863 -0.002814 -0.002068 -0.002068 -0.002068 -0.002065 -0.002033 -0.001997 -0.001463 -0.001463 -0.001463 -0.001460 -0.001437 -0.001410 -0.001029 -0.001029 -0.001029 -0.001028 -0.001011 -0.000991 -0.000721 -0.000721 -0.000721 -0.000720 -0.000707 -0.000694 -0.000503 -0.000503 -0.000503 -0.000502 -0.000493 -0.000483 -0.000349 -0.000349 -0.000349 -0.000348 -0.000342 -0.000335 -0.000241 -0.000241 -0.000241 -0.000240 -0.000236 -0.000231 -0.000166 -0.000166 -0.000166 -0.000165 -0.000162 -0.000159 -0.000113 -0.000113 -0.000113 -0.000113 -0.000111 -0.000108 -0.000077 -0.000077 -0.000077 -0.000077 -0.000075 -0.000074 -0.000052 -0.000052 -0.000052 -0.000052 -0.000051 -0.000050 -0.000035 -0.000035 -0.000035 -0.000035 -0.000034 -0.000034 -0.000024 -0.000024 -0.000024 -0.000024 -0.000023 -0.000023 -0.000016 -0.000016 -0.000016 -0.000016 -0.000015 -0.000015 -0.000011 -0.000011 -0.000011 -0.000010 -0.000010 -0.000010 -0.000007 -0.000007 -0.000007 -0.000007 -0.000007 -0.000007 -0.000005 -0.000005 -0.000005 -0.000005 -0.000004 -0.000004 -0.000003 -0.000003 -0.000003 -0.000003 -0.000003 -0.000003 -0.000002 -0.000002 -0.000002 -0.000002 -0.000002 -0.000002 -0.000001 -0.000001 -0.000001 -0.000001 -0.000001 -0.000001 -0.000001 -0.000001 -0.000001 -0.000001 -0.000001 -0.000001 -0.000001 -0.000001 -0.000001 -0.000001 -0.000001 -0.000001 -0.000000 -0.000000 -0.000000 -0.000000 -0.000000 -0.000000 -0.000000 -0.000000 -0.000000 -0.000000 -0.000000 -0.000000 -0.000000 -0.000000 -0.000000 -0.000000 -0.000000 -0.000000 -0.000000 -0.000000 -0.000000 -0.000000 -0.000000 -0.000000 -0.000000 -0.000000 -0.000000 -0.000000 -0.000000 -0.000000 -0.000000 -0.000000 -0.000000 -0.000000 -0.000000 -0.000000 -0.000000 -0.000000 -0.000000 -0.000000 -0.000000 -0.000000 -0.000000 -0.000000 -0.000000 -0.000000 -0.000000 -0.000000 -0.000000 -0.000000 -0.000000 -0.000000 -0.000000 -0.000000 -0.000000 -0.000000 -0.000000 -0.000000 -0.000000 -0.000000 -0.000000 -0.000000 -0.000000 -0.000000 -0.000000 -0.000000 -0.000000 -0.000000 -0.000000 -0.000000 -0.000000 -0.000000 -0.000000 -0.000000 -0.000000 -0.000000 -0.000000 -0.000000 -0.000000 -0.000000 -0.000000 -0.000000 -0.000000 -0.000000 -0.000000 -0.000000 -0.000000 -0.000000 -0.000000 -0.000000 -0.000000 -0.000000 -0.000000 -0.000000 -0.000000 -0.000000 -0.000000 -0.000000 -0.000000 -0.000000 -0.000000 -0.000000 -0.000000 -0.000000 -0.000000 -0.000000 -0.000000 -0.000000 -0.000000 -0.000000 -0.000000 -0.000000 -0.000000 -0.000000 -0.000000 -0.000000 -0.000000 -0.000000 -0.000000 -0.000000 -0.000000 -0.000000 -0.000000 -0.000000 -0.000000 -0.000000 -0.000000 -0.000000 -0.000000 -0.000000 -0.000000 -0.000000 -0.000000 -0.000000 -0.000000 -0.000000 -0.000000 -0.000000 -0.000000 -0.000000 -0.000000 -0.000000 -0.000000 -0.000000 -0.000000 -0.000000 -0.000000 -0.000000 -0.000000 -0.000000 -0.000000 -0.000000 -0.000000 -0.000000 -0.000000 -0.000000 -0.000000 -0.000000 -0.000000 -0.000000 -0.000000 -0.000000 -0.000000 -0.000000 -0.000000 -0.000000 -0.000000 -0.000000 -0.000000 -0.000000 -0.000000 -0.000000 -0.000000 -0.000000 -0.000000 -0.000000 -0.000000 -0.000000 -0.000000 -0.000000 -0.000000 -0.000000 -0.000000 -0.000000 -0.000000 -0.000000 -0.000000 -0.000000 -0.000000 -0.000000 -0.000000 -0.000000 -0.000000 -0.000000 -0.000000 -0.000000 -0.000000 -0.000000 -0.000000 -0.000000 -0.000000 -0.000000 -0.000000 -0.000000 -0.000000 -0.000000 -0.000000 -0.000000 -0.000000 -0.000000 -0.000000 -0.000000 -0.000000 -0.000000 -0.000000 -0.000000 -0.000000 -0.000000 -0.000000 -0.000000 -0.000000 -0.000000 -0.000000 -0.000000 -0.000000 -0.000000 -0.000000 -0.000000 -0.000000 -0.000000 -0.000000 -0.000000 -0.000000 -0.000000 -0.000000 -0.000000 -0.000000 -0.000000 -0.000000 -0.000000 -0.000000 -0.000000 -0.000000 -0.000000 -0.000000 -0.000000 -0.000000 -0.000000 -0.000000 -0.000000 -0.000000 -0.000000 -0.000000 -0.000000 -0.000000 -0.000000 -0.000000 -0.000000 -0.000000 -0.000000 -0.000000 -0.000000 -0.000000 -0.000000 -0.000000 -0.000000 -0.000000 -0.000000 -0.000000 -0.000000 -0.000000 -0.000000 -0.000000 -0.000000 -0.000000 -0.000000 -0.000000 -0.000000 -0.000000 -0.000000 -0.000000 -0.000000 -0.000000 -0.000000 -0.000000 -0.000000 -0.000000 -0.000000 -0.000000 -0.000000 -0.000000 -0.000000 -0.000000 -0.000000 -0.000000 -0.000000 -0.000000 -0.000000 -0.000000 -0.000000 -0.000000 -0.000000 -0.000000 -0.000000 -0.000000 -0.000000 -0.000000 -0.000000 -0.000000 -0.000000 -0.000000 -0.000000 -0.000000 -0.000000 -0.000000 -0.000000 -0.000000 -0.000000 -0.000000 -0.000000 -0.000000 -0.000000 -0.000000 -0.000000 -0.000000 -0.000000 -0.000000 -0.000000 -0.000000 -0.000000 -0.000000 -0.000000 -0.000000 -0.000000 -0.000000 -0.000000 -0.000000 -0.000000 -0.000000 -0.000000 -0.000000 -0.000000 -0.000000 -0.000000 -0.000000 -0.000000 -0.000000 -0.000000 -0.000000 -0.000000 -0.000000 -0.000000 -0.000000 -0.000000 -0.000000 -0.000000 -0.000000 -0.000000 -0.000000 -0.000000 -0.000000 -0.000000 -0.000000 -0.000000 -0.000000 -0.000000 -0.000000 -0.000000 -0.000000 -0.000000 -0.000000 -0.000000 -0.000000 -0.000000 -0.000000 -0.000000 -0.000000 -0.000000 -0.000000 -0.000000 -0.000000 -0.000000 -0.000000 -0.000000 -0.000000 -0.000000 -0.000000 -0.000000 -0.000000 -0.000000 -0.000000 -0.000000 -0.000000 -0.000000 -0.000000 -0.000000 -0.000000 -0.000000 -0.000000 -0.000000 -0.000000 -0.000000 -0.000000 -0.000000 -0.000000 -0.000000 -0.000000 -0.000000 -0.000000 -0.000000 -0.000000 -0.000000 -0.000000 -0.000000 -0.000000 -0.000000 -0.000000 -0.000000 -0.000000 -0.000000 -0.000000 -0.000000 -0.000000 -0.000000 -0.000000 -0.000000 -0.000000 -0.000000 -0.000000 -0.000000 -0.000000 -0.000000 -0.000000 -0.000000 -0.000000 -0.000000 -0.000000 -0.000000 -0.000000 -0.000000 -0.000000 -0.000000 -0.000000 -0.000000 -0.000000 -0.000000 -0.000000 -0.000000 -0.000000 -0.000000 -0.000000 -0.000000 -0.000000 -0.000000 -0.000000 -0.000000 -0.000000 -0.000000 -0.000000 -0.000000 -0.000000 -0.000000 -0.000000 -0.000000 -0.000000 -0.000000 -0.000000 -0.000000 -0.000000 -0.000000 -0.000000 -0.000000 -0.000000 -0.000000 -0.000000 -0.000000 -0.000000 -0.000000 -0.000000 -0.000000 -0.000000 -0.000000 -0.000000 -0.000000 -0.000000 -0.000000 -0.000000 -0.000000 -0.000000 -0.000000 -0.000000 -0.000000 -0.000000 -0.000000 -0.000000 -0.000000 -0.000000 -0.000000 -0.000000 -0.000000 -0.000000 -0.000000 -0.000000 -0.000000 -0.000000 -0.000000 -0.000000 -0.000000 -0.000000 -0.000000 -0.000000 -0.000000 -0.000000 -0.000000 -0.000000 -0.000000 -0.000000 -0.000000 -0.000000 -0.000000 -0.000000 -0.000000 -0.000000 -0.000000 -0.000000 -0.000000 -0.000000 -0.000000 -0.000000 -0.000000 -0.000000 -0.000000 -0.000000 -0.000000 -0.000000 -0.000000 -0.000000 -0.000000 -0.000000 -0.000000 -0.000000 -0.000000 -0.000000 -0.000000 -0.000000 -0.000000 -0.000000 -0.000000 -0.000000 -0.000000 -0.000000 -0.000000 -0.000000 -0.000000 -0.000000 -0.000000 -0.000000 -0.000000 -0.000000 -0.000000 -0.000000 -0.000000 -0.000000 -0.000000 -0.000000 -0.000000 -0.000000 -0.000000 -0.000000 -0.000000 -0.000000 -0.000000 -0.000000 -0.000000 -0.000000 -0.000000 -0.000000 -0.000000 -0.000000 -0.000000 -0.000000 -0.000000 -0.000000 -0.000000 -0.000000 -0.000000 -0.000000 -0.000000 -0.000000 -0.000000 -0.000000 -0.000000 -0.000000 -0.000000 -0.000000 -0.000000 -0.000000 -0.000000 -0.000000 -0.000000 -0.000000 -0.000000 -0.000000 -0.000000 -0.000000 -0.000000 -0.000000 -0.000000 -0.000000 -0.000000 -0.000000 -0.000000 -0.000000 -0.000000 -0.000000 -0.000000 -0.000000 -0.000000 -0.000000 -0.000000 -0.000000 -0.000000 -0.000000 -0.000000 -0.000000 -0.000000 -0.000000 -0.000000 -0.000000 -0.000000 -0.000000 -0.000000 -0.000000 -0.000000 -0.000000 -0.000000 -0.000000 -0.000000 -0.000000 -0.000000 -0.000000 -0.000000 -0.000000 -0.000000 -0.000000 -0.000000 -0.000000 -0.000000 -0.000000 -0.000000 -0.000000 -0.000000 -0.000000 -0.000000 -0.000000 -0.000000 -0.000000 -0.000000 -0.000000 -0.000000 -0.000000 -0.000000 -0.000000 -0.000000 -0.000000 -0.000000 -0.000000 -0.000000 -0.000000 -0.000000 -0.000000 -0.000000 -0.000000 -0.000000 -0.000000 -0.000000 -0.000000 -0.000000 -0.000000 -0.000000 -0.000000 -0.000000 -0.000000 -0.000000 -0.000000 -0.000000 -0.000000 -0.000000 -0.000000 -0.000000 -0.000000 -0.000000 -0.000000 -0.000000 -0.000000 -0.000000 -0.000000 -0.000000 -0.000000 -0.000000 -0.000000 -0.000000 -0.000000 -0.000000 -0.000000 -0.000000 -0.000000 -0.000000 -0.000000 -0.000000 -0.000000 -0.000000 -0.000000 -0.000000 -0.000000 -0.000000 -0.000000 -0.000000 -0.000000 -0.000000 -0.000000 -0.000000 -0.000000 -0.000000 -0.000000 -0.000000 -0.000000 -0.000000 -0.000000 -0.000000 -0.000000 -0.000000 -0.000000 -0.000000 -0.000000 -0.000000 -0.000000 -0.000000 -0.000000 -0.000000 -0.000000 -0.000000 -0.000000 -0.000000 -0.000000 -0.000000 -0.000000 -0.000000 -0.000000 -0.000000 -0.000000 -0.000000 -0.000000 -0.000000 0.000000 -0.000000 -0.000000 -0.000000 -0.000000 -0.000000 -0.000000 -0.000000 -0.000000 -0.000000 -0.000000 -0.000000 -0.000000 -0.000000 -0.000000 -0.000000 -0.000000 -0.000000 -0.000000 -0.000000 -0.000000 -0.000000 -0.000000 -0.000000 -0.000000 -0.000000 -0.000000 -0.000000 -0.000000 -0.000000 -0.000000 -0.000000 -0.000000 -0.000000 -0.000000 -0.000000 -0.000000 -0.000000 -0.000000 -0.000000 -0.000000 -0.000000 -0.000000 -0.000000 -0.000000 -0.000000 -0.000000 -0.000000 -0.000000 -0.000000 -0.000000 -0.000000 -0.000000 -0.000000 -0.000000 -0.000000 -0.000000 -0.000000 -0.000000 -0.000000 -0.000000 -0.000000 -0.000000 -0.000000 -0.000000 -0.000000 -0.000000 -0.000000 -0.000000 -0.000000 -0.000000 -0.000000 -0.000000 -0.000000 -0.000000 -0.000000 -0.000000 -0.000000 -0.000000 -0.000000 -0.000000 -0.000000 -0.000000 -0.000000 -0.000000 -0.000000 -0.000000 -0.000000 -0.000000 -0.000000 -0.000000 -0.000000 -0.000000 -0.000000 -0.000000 -0.000000 -0.000000 -0.000000 -0.000000 -0.000000 -0.000000 -0.000000 -0.000000 -0.000000 -0.000000 -0.000000 -0.000000 -0.000000 -0.000000 -0.000000 -0.000000 -0.000000 -0.000000 -0.000000 -0.000000 -0.000000 -0.000000 -0.000000 -0.000000 -0.000000 -0.000000 -0.000000 -0.000000 -0.000000 -0.000000 -0.000000 -0.000000 -0.000000 -0.000000 -0.000000 -0.000000 -0.000000 -0.000000 -0.000000 -0.000000 -0.000000 -0.000000 -0.000000 -0.000000 -0.000000 -0.000000 -0.000000 -0.000000 -0.000000 -0.000000 -0.000000 -0.000000 -0.000000 -0.000000 -0.000000 -0.000000 -0.000000 -0.000000 -0.000000 -0.000000 -0.000000 -0.000000 -0.000000 -0.000000 -0.000000 -0.000000 -0.000000 -0.000000 -0.000000 -0.000000 -0.000000 -0.000000 -0.000000 -0.000000 -0.000000 -0.000000 -0.000000 -0.000000 -0.000000 -0.000000 -0.000000 -0.000000 -0.000000 -0.000000 -0.000000 -0.000000 -0.000000 -0.000000 -0.000000 -0.000000 -0.000000 -0.000000 -0.000000 -0.000000 -0.000000 -0.000000 -0.000000 -0.000000 -0.000000 -0.000000 -0.000000 -0.000000 -0.000000 -0.000000 -0.000000 -0.000000 -0.000000 -0.000000 -0.000000 -0.000000 -0.000000 -0.000000 -0.000000 -0.000000 -0.000000 -0.000000 -0.000000 -0.000000 -0.000000 -0.000000 -0.000000 -0.000000 -0.000000 -0.000000 -0.000000 -0.000000 -0.000000 -0.000000 -0.000000 -0.000000 -0.000000 -0.000000 -0.000000 -0.000000 -0.000001 -0.000000 -0.000000 -0.000000 -0.000001 -0.000001 -0.000001 -0.000001 -0.000001 -0.000001 -0.000001 -0.000001 -0.000002 -0.000004 -0.000007 -0.000010 -0.000015 -0.000021 -0.000030 -0.000041 -0.000057 -0.000078 -0.000104 -0.000139 -0.000183 -0.000237 -0.000302 -0.000377 -0.000460 -0.000543 -0.000615 -0.000652 -0.000618 -0.000454 -0.000071 0.000667 0.001959 0.004096 0.007492 0.012734 0.020639 0.032337 0.049374 0.073844 0.108557 0.157251 0.224864 0.317855 0.444616 0.615960 0.845717 1.151445 1.555265 2.084850 2.774562 3.666768 4.813325 6.277262 8.134643 10.476624 13.411693 17.068081 21.596344 27.172081 33.998792 42.310848 52.376558 64.501359 79.031132 96.355784 116.913310 141.194839 169.751554 203.205040 242.263485 287.747258 340.628483 402.090075 473.610443 557.082910 654.994609 770.755999 909.511708 1080.559516 1305.108786 1642.223951 2282.739714 4010.888364 9275.515639 10487.872708 13635.811644 13786.671066 15471.110862 14362.092143 14782.750227 13234.478669 16242.691402 16625.959652 15782.683999 18037.535250 21139.425940 22408.303874 23658.760887 25695.675771 26446.140316 26923.064998 26348.193897 26175.511028 26648.096470 27065.477213 23415.237759 20780.965097 21290.660778 22756.727420 17985.203652 16840.710073 16840.710073 16840.710073 -0.000001 -0.000001 -0.000001 -0.000001 -0.000001 -0.000003 -0.000005 -0.000007 -0.000011 -0.000015 -0.000022 -0.000030 -0.000042 -0.000058 -0.000078 -0.000106 -0.000140 -0.000184 -0.000238 -0.000303 -0.000378 -0.000460 -0.000542 -0.000610 -0.000642 -0.000599 -0.000423 -0.000020 0.000746 0.002081 0.004278 0.007759 0.013120 0.021189 0.033112 0.050455 0.075334 0.110593 0.160008 0.228565 0.322783 0.451125 0.624494 0.856822 1.165791 1.573668 2.108292 2.804220 3.704037 4.859848 6.334956 8.205730 10.563654 13.517570 17.196090 21.750168 27.355822 34.216984 42.568471 52.679053 64.854641 79.441622 96.830470 117.459872 141.821897 170.469125 204.025317 243.202056 288.824815 341.872852 403.537840 475.306113 559.070256 657.284717 773.221890 911.532941 1079.776330 1292.915669 1586.628194 2054.856060 2922.088540 4207.647975 5462.242592 6633.894357 7513.008833 8411.654658 8861.242149 9482.211748 9796.703860 11894.006151 12082.977610 11697.747762 13462.620259 15706.350646 16026.205002 17097.263457 18149.311551 18872.290132 19085.282039 19430.264759 20423.860531 21660.745528 23309.404670 21225.999491 19743.850079 18453.533759 18138.443945 16116.991056 15670.548582 15670.548582 15670.548582 -0.000001 -0.000001 -0.000001 -0.000001 -0.000001 -0.000003 -0.000005 -0.000007 -0.000011 -0.000016 -0.000022 -0.000031 -0.000043 -0.000059 -0.000080 -0.000107 -0.000142 -0.000186 -0.000240 -0.000305 -0.000379 -0.000460 -0.000540 -0.000604 -0.000630 -0.000578 -0.000386 0.000039 0.000840 0.002223 0.004490 0.008070 0.013568 0.021828 0.034012 0.051707 0.077061 0.112950 0.163197 0.232844 0.328477 0.458644 0.634346 0.869637 1.182338 1.594885 2.135308 2.838385 3.746954 4.913403 6.401349 8.287506 10.663738 13.639292 17.343214 21.926914 27.566888 34.467566 42.864273 53.026307 65.260124 79.912697 97.375154 118.086997 142.541403 171.292607 204.966945 244.280013 290.063315 343.304581 405.206088 477.264641 561.375838 659.968084 776.190546 914.240907 1080.066988 1282.944095 1538.676757 1874.199761 2322.386638 2885.577601 3501.781609 4123.069418 4700.850189 5223.373630 5711.552672 6212.188854 6775.810777 7455.011056 8099.746579 8747.982946 9581.899106 10536.332688 11373.421044 12286.994267 13122.490026 13866.075823 14439.828467 14964.556917 15542.214007 16105.804192 16595.967315 16457.993358 16353.835687 15949.610147 15558.934526 15060.706737 14963.651295 14963.651295 14963.651295 -0.000001 -0.000001 -0.000001 -0.000001 -0.000001 -0.000003 -0.000005 -0.000007 -0.000011 -0.000016 -0.000022 -0.000031 -0.000043 -0.000059 -0.000080 -0.000107 -0.000142 -0.000186 -0.000241 -0.000305 -0.000380 -0.000460 -0.000539 -0.000603 -0.000628 -0.000574 -0.000379 0.000050 0.000857 0.002249 0.004528 0.008126 0.013649 0.021944 0.034174 0.051933 0.077372 0.113375 0.163773 0.233615 0.329504 0.459999 0.636120 0.871944 1.185318 1.598703 2.140169 2.844532 3.754674 4.923034 6.413286 8.302206 10.681726 13.661165 17.369647 21.958665 27.604799 34.512567 42.917389 53.088654 65.332919 79.997259 97.472925 118.199562 142.670552 171.440432 205.136009 244.473611 290.285842 343.561980 405.506264 477.617519 561.792289 660.455516 776.737996 914.768004 1080.244792 1281.572491 1531.647824 1848.880491 2251.160313 2737.807355 3280.269025 3837.903271 4373.474216 4871.185771 5347.989493 5839.517610 6383.792732 7002.024085 7647.042776 8336.127328 9133.157043 9998.860157 10868.792260 11747.321618 12588.207909 13330.548168 13951.818348 14488.900432 14994.506019 15463.936280 15777.179717 15823.413180 15751.903925 15588.064621 15238.618895 14925.596979 14863.684126 14863.684126 14863.684126 -0.000001 -0.000001 -0.000001 -0.000001 -0.000001 -0.000003 -0.000005 -0.000007 -0.000011 -0.000016 -0.000022 -0.000031 -0.000043 -0.000059 -0.000080 -0.000107 -0.000142 -0.000186 -0.000241 -0.000305 -0.000380 -0.000460 -0.000539 -0.000603 -0.000628 -0.000574 -0.000379 0.000050 0.000857 0.002249 0.004528 0.008126 0.013649 0.021944 0.034174 0.051933 0.077372 0.113375 0.163773 0.233615 0.329504 0.459999 0.636120 0.871944 1.185318 1.598703 2.140169 2.844532 3.754674 4.923034 6.413286 8.302206 10.681726 13.661165 17.369647 21.958665 27.604799 34.512567 42.917389 53.088654 65.332919 79.997259 97.472925 118.199562 142.670552 171.440432 205.136009 244.473611 290.285842 343.561980 405.506264 477.617519 561.792289 660.455516 776.737996 914.768004 1080.244792 1281.572491 1531.647824 1848.880491 2251.160313 2737.807355 3280.269025 3837.903271 4373.474216 4871.185771 5347.989493 5839.517610 6383.792732 7002.024085 7647.042776 8336.127328 9133.157043 9998.860157 10868.792260 11747.321618 12588.207909 13330.548168 13951.818348 14488.900432 14994.506019 15463.936280 15777.179717 15823.413180 15751.903925 15588.064621 15238.618895 14925.596979 14863.684126 14863.684126 14863.684126 -0.000001 -0.000001 -0.000001 -0.000001 -0.000001 -0.000003 -0.000005 -0.000007 -0.000011 -0.000016 -0.000022 -0.000031 -0.000043 -0.000059 -0.000080 -0.000107 -0.000142 -0.000186 -0.000241 -0.000305 -0.000380 -0.000460 -0.000539 -0.000603 -0.000628 -0.000574 -0.000379 0.000050 0.000857 0.002249 0.004528 0.008126 0.013649 0.021944 0.034174 0.051933 0.077372 0.113375 0.163773 0.233615 0.329504 0.459999 0.636120 0.871944 1.185318 1.598703 2.140169 2.844532 3.754674 4.923034 6.413286 8.302206 10.681726 13.661165 17.369647 21.958665 27.604799 34.512567 42.917389 53.088654 65.332919 79.997259 97.472925 118.199562 142.670552 171.440432 205.136009 244.473611 290.285842 343.561980 405.506264 477.617519 561.792289 660.455516 776.737996 914.768004 1080.244792 1281.572491 1531.647824 1848.880491 2251.160313 2737.807355 3280.269025 3837.903271 4373.474216 4871.185771 5347.989493 5839.517610 6383.792732 7002.024085 7647.042776 8336.127328 9133.157043 9998.860157 10868.792260 11747.321618 12588.207909 13330.548168 13951.818348 14488.900432 14994.506019 15463.936280 15777.179717 15823.413180 15751.903925 15588.064621 15238.618895 14925.596979 14863.684126 14863.684126 14863.684126 -1338.343699 -1467.498317 -1678.685561 -2063.477145 -2480.241874 -1226.187622 17.338533 -783.713686 -1554.163177 -156.136922 1100.330798 275.890363 -638.125818 -1554.418818 -458.593900 1393.842901 508.280519 -914.441795 -1761.327618 424.336171 1538.051015 -357.989759 -2066.841961 -19.109581 2323.615665 939.003629 -465.985720 -2002.175605 -752.274584 2290.847890 1474.520102 134.895941 -1347.988986 -1842.012595 1932.825129 3348.077283 2649.696055 2237.925661 1628.304074 2032.019292 3124.630984 3397.420449 5604.170748 7007.522959 7097.710117 6882.849957 8004.180998 10183.627636 9583.755833 8409.420098 9564.891615 10844.442950 10860.735694 10877.550680 10877.550680 10877.550680 74.635228 -336.762554 -163.750893 10097.971514 8283.637419 11722.929095 8051.206314 9216.084247 8470.592433 8981.101867 6941.916692 8719.155752 9119.341028 8380.657245 8842.538528 9883.353040 10204.759387 9742.007675 10221.003844 11231.106957 8319.936897 8317.258303 10122.462939 8544.933879 9736.023177 7718.957019 8612.103123 8604.651418 8124.221542 9796.589549 9982.538725 10065.646343 11300.625950 9718.327513 9647.359567 9232.925777 11353.981078 10815.105261 9421.943058 9424.443452 10265.105883 7142.489075 8602.249318 9928.757403 10953.965200 9826.860949 8628.892056 11957.301310 9785.663508 10773.669571 12317.650566 10929.913164 10764.330466 10708.077485 10708.077485 10708.077485 124.146387 102.421501 4220.953249 1800.280721 10949.036133 8990.208525 8003.292125 7016.633159 8342.146367 6469.168641 9799.142868 8654.115019 13629.371515 7957.522187 6680.486496 9430.415114 4298.580284 8394.942524 8252.943589 10729.915819 8797.777063 10286.542152 7956.366935 9262.103211 9162.831617 9056.106215 7882.579047 6685.266952 8169.137030 8056.075555 4713.807739 7973.202261 9565.315399 8268.075960 9716.715608 8860.244153 6119.433901 7204.647516 7742.056203 10135.078150 7212.217379 7520.250759 6441.499084 10427.272903 6384.396657 9878.781593 8349.630485 12372.180629 7664.537973 13280.507488 11466.416305 10414.859537 10432.063293 10374.796350 10374.796350 10374.796350 -195.031248 -814.023167 9476.164261 5261.076356 11269.233249 6733.256464 10929.649612 7884.063041 9142.644729 9561.235032 9877.005706 7932.190599 9612.640917 5926.950147 7401.642827 9546.725867 8213.614161 7664.526740 9030.697240 9438.635716 9316.475377 6673.150621 5986.627213 8813.568077 7642.632479 7317.460072 8552.905023 6967.013049 9237.257784 10686.211338 11145.741796 8331.602685 8145.799085 7477.860288 8844.677791 8128.474876 8126.250411 6225.162028 7927.696087 7108.350218 5625.519023 6855.158797 8704.688776 11005.120492 5667.818770 10963.677471 14871.829905 9139.872871 10395.782476 12562.647946 11700.676401 9308.616000 9902.553164 10094.026169 10094.026169 10094.026169 2359.782456 2634.062207 2418.998243 3716.762924 2761.441756 9651.870529 7328.726278 8807.306194 8356.304570 8815.956932 1605.672010 9268.002899 6956.433255 9858.304572 7146.131232 7453.482399 2747.488416 5978.656562 10706.154660 3758.019605 53