<VTKFile type="PolyData">
<PolyData>
<Piece NumberOfPoints="8632" NumberOfVerts="8632" NumberOfLines="0" NumberOfStrips="0" NumberOfPolys="0">
<PointData>
<DataArray type="Float64" Name="Pressure" format="ascii">
 -2.231435 -2.231435 -2.231435 -2.265095 -2.643291 -3.624169 -4.747666 -6.047904 -7.529340 -9.205048 -11.099438 -13.244273 -15.676202 -18.435723 -21.566889 -25.117287 -29.138127 -33.684348 -38.814712 -44.591872 -51.082398 -58.356762 -66.489274 -75.557963 -85.644409 -96.833499 -109.213136 -122.873865 -137.908430 -154.411257 -172.477836 -192.204024 -213.685234 -237.015514 -262.286505 -289.586273 -318.998013 -350.598634 -384.457260 -420.633684 -459.176844 -500.123440 -543.496809 -589.306234 -637.546852 -688.200301 -741.236153 -796.613896 -854.284640 -914.190368 -976.255535 -1040.358864 -1106.257512 -1173.407580 -1240.594649 -1305.650012 -1365.895047 -1418.067720 -1456.019072 -1467.304381 -1430.961225 -1320.492655 -1140.261889 -964.459810 -836.782962 -706.447637 -542.091686 -411.957746 -368.074001 -369.087974 -346.476083 -264.355150 -172.929355 -152.353152 -181.501467 -174.543502 -46.681568 235.246642 603.517378 949.809843 1210.380621 1420.914584 1690.515559 2100.812103 2639.637789 3248.628650 3901.106647 4567.916691 5200.607170 5779.252346 6329.025415 6889.784082 7472.945797 8067.777042 8683.556487 9328.477113 9966.111359 10550.838743 11064.505608 11516.640186 11916.538856 12244.778430 12475.294438 12617.535995 12697.059010 12739.728802 12778.613562 12818.087674 12827.759563 12827.759563 12827.759563 -2.231435 -2.231435 -2.231435 -2.265095 -2.643291 -3.624169 -4.747666 -6.047904 -7.529340 -9.205048 -11.099438 -13.244273 -15.676202 -18.435723 -21.566889 -25.117287 -29.138127 -33.684348 -38.814712 -44.591872 -51.082398 -58.356762 -66.489274 -75.557963 -85.644409 -96.833499 -109.213136 -122.873865 -137.908430 -154.411257 -172.477836 -192.204024 -213.685234 -237.015514 -262.286505 -289.586273 -318.998013 -350.598634 -384.457260 -420.633684 -459.176844 -500.123440 -543.496809 -589.306234 -637.546852 -688.200301 -741.236153 -796.613896 -854.284640 -914.190368 -976.255535 -1040.358864 -1106.257512 -1173.407580 -1240.594649 -1305.650012 -1365.895047 -1418.067720 -1456.019072 -1467.304381 -1430.961225 -1320.492655 -1140.261889 -964.459810 -836.782962 -706.447637 -542.091686 -411.957746 -368.074001 -369.087974 -346.476083 -264.355150 -172.929355 -152.353152 -181.501467 -174.543502 -46.681568 235.246642 603.517378 949.809843 1210.380621 1420.914584 1690.515559 2100.812103 2639.637789 3248.628650 3901.106647 4567.916691 5200.607170 5779.252346 6329.025415 6889.784082 7472.945797 8067.777042 8683.556487 9328.477113 9966.111359 10550.838743 11064.505608 11516.640186 11916.538856 12244.778430 12475.294438 12617.535995 12697.059010 12739.728802 12778.613562 12818.087674 12827.759563 12827.759563 12827.759563 -2.231435 -2.231435 -2.231435 -2.265095 -2.643291 -3.624169 -4.747666 -6.047904 -7.529340 -9.205048 -11.099438 -13.244273 -15.676202 -18.435723 -21.566889 -25.117287 -29.138127 -33.684348 -38.814712 -44.591872 -51.082398 -58.356762 -66.489274 -75.557963 -85.644409 -96.833499 -109.213136 -122.873865 -137.908430 -154.411257 -172.477836 -192.204024 -213.685234 -237.015514 -262.286505 -289.586273 -318.998013 -350.598634 -384.457260 -420.633684 -459.176844 -500.123440 -543.496809 -589.306234 -637.546852 -688.200301 -741.236153 -796.613896 -854.284640 -914.190368 -976.255535 -1040.358864 -1106.257512 -1173.407580 -1240.594649 -1305.650012 -1365.895047 -1418.067720 -1456.019072 -1467.304381 -1430.961225 -1320.492655 -1140.261889 -964.459810 -836.782962 -706.447637 -542.091686 -411.957746 -368.074001 -369.087974 -346.476083 -264.355150 -172.929355 -152.353152 -181.501467 -174.543502 -46.681568 235.246642 603.517378 949.809843 1210.380621 1420.914584 1690.515559 2100.812103 2639.637789 3248.628650 3901.106647 4567.916691 5200.607170 5779.252346 6329.025415 6889.784082 7472.945797 8067.777042 8683.556487 9328.477113 9966.111359 10550.838743 11064.505608 11516.640186 11916.538856 12244.778430 12475.294438 12617.535995 12697.059010 12739.728802 12778.613562 12818.087674 12827.759563 12827.759563 12827.759563 -2.219660 -2.219660 -2.219660 -2.252648 -2.627883 -3.601882 -4.727513 -6.035231 -7.522111 -9.200133 -11.095183 -13.239943 -15.671472 -18.430439 -21.560959 -25.110643 -29.130710 -33.676101 -38.805579 -44.581796 -51.071323 -58.344633 -66.476037 -75.543568 -85.628806 -96.816646 -109.194993 -122.854398 -137.887615 -154.389075 -172.454279 -192.179096 -213.658951 -236.987905 -262.257618 -289.556173 -318.966783 -350.566381 -384.424112 -420.599791 -459.142378 -500.088590 -543.461784 -589.271260 -637.512187 -688.166283 -741.203343 -796.583462 -854.259343 -914.177059 -976.271373 -1040.446480 -1106.519505 -1174.071545 -1241.977253 -1307.948679 -1369.229113 -1423.442087 -1465.613930 -1484.917734 -1461.037371 -1352.485153 -1128.106639 -952.446197 -840.722010 -723.191260 -522.120402 -379.397456 -350.946811 -374.733085 -365.046973 -266.475460 -136.936763 -130.150621 -189.015714 -213.634330 -101.494794 203.522217 613.051678 990.417455 1242.401873 1410.195135 1638.104850 2037.647113 2589.870685 3196.994202 3858.093571 4556.585372 5216.313190 5801.300442 6339.928913 6896.452168 7489.786777 8082.641448 8683.460489 9334.826558 9988.985662 10585.575128 11099.547646 11546.885426 11950.267893 12289.269713 12514.200285 12642.611975 12708.607777 12735.595935 12769.607548 12822.594284 12836.963783 12836.963783 12836.963783 -2.092188 -2.092188 -2.092188 -2.118204 -2.440607 -3.305223 -4.467645 -5.900807 -7.449381 -9.151375 -11.052873 -13.196757 -15.624250 -18.377652 -21.501706 -25.044253 -29.056591 -33.593685 -38.714301 -44.481094 -50.960636 -58.223409 -66.343741 -75.399687 -85.472859 -96.648191 -109.013640 -122.659816 -137.679545 -154.167340 -172.218801 -191.929906 -213.396206 -236.711909 -261.968835 -289.255249 -318.654563 -350.243922 -384.092696 -420.260919 -458.797764 -499.740143 -543.111580 -588.921555 -637.165541 -687.826032 -740.874977 -796.278334 -854.004247 -914.038481 -976.416323 -1041.293344 -1109.103656 -1180.817306 -1258.304224 -1335.632327 -1406.272345 -1481.754530 -1569.773474 -1679.249987 -1813.726667 -1754.415041 -913.918628 -580.442581 -898.973138 -1022.606257 -265.938769 180.243901 -140.700204 -449.384564 -713.501965 -365.896573 407.833100 200.504889 -276.561093 -701.615250 -892.452671 -186.725700 794.916878 1559.900396 1738.915426 1301.420682 930.860489 1213.839157 2045.322939 2584.666225 3281.308610 4419.053014 5474.828294 6146.969241 6493.142761 6969.204688 7802.560090 8422.335111 8739.685252 9415.724847 10264.969833 10967.442904 11431.386036 11733.059513 12135.573994 12687.480268 12979.652753 13030.816918 12993.076675 12764.675392 12618.031536 12845.238911 12930.371254 12930.371254 12930.371254 -1.911626 -1.911626 -1.911626 -1.931831 -2.164504 -2.781002 -3.900222 -5.668473 -7.346066 -9.088807 -11.002157 -13.146704 -15.570245 -18.317572 -21.434374 -24.968849 -28.972420 -33.500089 -38.610636 -44.366716 -50.834907 -58.085701 -66.193443 -75.236215 -85.295665 -96.456771 -108.807549 -122.438676 -137.443059 -153.915307 -171.951126 -191.646623 -213.097492 -236.398105 -261.640467 -288.913048 -318.299487 -349.877172 -383.715727 -419.875445 -458.405746 -499.343773 -542.713270 -588.523985 -636.771885 -687.440711 -740.505773 -795.941986 -853.740810 -913.947720 -976.749606 -1042.687317 -1113.189601 -1191.982521 -1289.149421 -1377.661161 -1451.622547 -1550.006445 -1691.713561 -1908.218295 -2303.194024 -2512.842438 -930.928261 -68.221633 -988.035229 -1594.317515 -94.293245 964.520501 171.198519 -564.432277 -1315.295590 -678.506609 1119.070905 699.609781 -386.306070 -1392.727515 -2568.831039 -1357.872747 553.585120 3032.034619 3175.802265 1188.850080 -384.392223 -1041.403769 2046.233165 1733.004676 1821.672158 4276.511369 6015.153416 7133.209093 6847.837745 6653.101610 8666.649383 10448.122416 8663.563818 9476.866931 10491.094107 11100.448075 11198.148871 11138.636557 11122.469535 13227.570355 14367.337504 14194.460738 13780.884801 13296.023482 12467.774156 12852.844674 13050.020455 13050.020455 13050.020455 -1.886208 -1.886208 -1.886208 -1.905590 -2.126787 -2.698329 -1.710887 -1.710887 -1.710887 -1.723526 -1.867107 -2.180605 -1.441079 -1.441079 -1.441079 -1.446685 -1.506304 -1.607481 -1.199861 -1.199861 -1.199861 -1.201976 -1.222884 -1.257471 -0.992121 -0.992121 -0.992121 -0.992705 -0.998292 -1.008566 -0.816396 -0.816396 -0.816396 -0.816401 -0.816337 -0.817768 -0.669261 -0.669261 -0.669261 -0.669074 -0.667151 -0.665556 -0.546844 -0.546844 -0.546844 -0.546611 -0.544267 -0.541841 -0.445453 -0.445453 -0.445453 -0.445228 -0.442982 -0.440526 -0.361789 -0.361789 -0.361789 -0.361591 -0.359603 -0.357388 -0.292984 -0.292984 -0.292984 -0.292814 -0.291116 -0.289207 -0.236578 -0.236578 -0.236578 -0.236435 -0.235008 -0.233398 -0.190478 -0.190478 -0.190478 -0.190359 -0.189171 -0.187830 -0.152918 -0.152918 -0.152918 -0.152819 -0.151837 -0.150726 -0.122408 -0.122408 -0.122408 -0.122327 -0.121517 -0.120602 -0.097700 -0.097700 -0.097700 -0.097634 -0.096970 -0.096219 -0.077753 -0.077753 -0.077753 -0.077698 -0.077155 -0.076542 -0.061697 -0.061697 -0.061697 -0.061653 -0.061210 -0.060710 -0.048813 -0.048813 -0.048813 -0.048777 -0.048418 -0.048012 -0.038507 -0.038507 -0.038507 -0.038478 -0.038187 -0.037858 -0.030287 -0.030287 -0.030287 -0.030263 -0.030029 -0.029764 -0.023752 -0.023752 -0.023752 -0.023733 -0.023544 -0.023331 -0.018571 -0.018571 -0.018571 -0.018556 -0.018405 -0.018234 -0.014478 -0.014478 -0.014478 -0.014466 -0.014345 -0.014209 -0.011254 -0.011254 -0.011254 -0.011244 -0.011148 -0.011039 -0.008721 -0.008721 -0.008721 -0.008714 -0.008637 -0.008551 -0.006739 -0.006739 -0.006739 -0.006733 -0.006672 -0.006604 -0.005191 -0.005191 -0.005191 -0.005186 -0.005139 -0.005085 -0.003987 -0.003987 -0.003987 -0.003984 -0.003946 -0.003904 -0.003053 -0.003053 -0.003053 -0.003050 -0.003021 -0.002988 -0.002331 -0.002331 -0.002331 -0.002329 -0.002306 -0.002280 -0.001775 -0.001775 -0.001775 -0.001773 -0.001755 -0.001735 -0.001347 -0.001347 -0.001347 -0.001345 -0.001332 -0.001316 -0.001019 -0.001019 -0.001019 -0.001018 -0.001007 -0.000995 -0.000769 -0.000769 -0.000769 -0.000768 -0.000760 -0.000750 -0.000578 -0.000578 -0.000578 -0.000578 -0.000571 -0.000564 -0.000434 -0.000434 -0.000434 -0.000433 -0.000428 -0.000423 -0.000324 -0.000324 -0.000324 -0.000324 -0.000320 -0.000316 -0.000242 -0.000242 -0.000242 -0.000241 -0.000239 -0.000235 -0.000180 -0.000180 -0.000180 -0.000179 -0.000177 -0.000175 -0.000133 -0.000133 -0.000133 -0.000133 -0.000131 -0.000129 -0.000098 -0.000098 -0.000098 -0.000098 -0.000097 -0.000096 -0.000072 -0.000072 -0.000072 -0.000072 -0.000071 -0.000070 -0.000053 -0.000053 -0.000053 -0.000053 -0.000052 -0.000052 -0.000039 -0.000039 -0.000039 -0.000039 -0.000038 -0.000038 -0.000028 -0.000028 -0.000028 -0.000028 -0.000028 -0.000028 -0.000021 -0.000021 -0.000021 -0.000021 -0.000020 -0.000020 -0.000015 -0.000015 -0.000015 -0.000015 -0.000015 -0.000015 -0.000011 -0.000011 -0.000011 -0.000011 -0.000011 -0.000010 -0.000008 -0.000008 -0.000008 -0.000008 -0.000008 -0.000008 -0.000006 -0.000006 -0.000006 -0.000006 -0.000006 -0.000005 -0.000004 -0.000004 -0.000004 -0.000004 -0.000004 -0.000004 -0.000003 -0.000003 -0.000003 -0.000003 -0.000003 -0.000003 -0.000002 -0.000002 -0.000002 -0.000002 -0.000002 -0.000002 -0.000001 -0.000001 -0.000001 -0.000001 -0.000001 -0.000001 -0.000001 -0.000001 -0.000001 -0.000001 -0.000001 -0.000001 -0.000001 -0.000001 -0.000001 -0.000001 -0.000001 -0.000001 -0.000001 -0.000001 -0.000001 -0.000001 -0.000001 -0.000000 -0.000000 -0.000000 -0.000000 -0.000000 -0.000000 -0.000000 -0.000000 -0.000000 -0.000000 -0.000000 -0.000000 -0.000000 -0.000000 -0.000000 -0.000000 -0.000000 -0.000000 -0.000000 -0.000000 -0.000000 -0.000000 -0.000000 -0.000000 -0.000000 -0.000000 -0.000000 -0.000000 -0.000000 -0.000000 -0.000000 -0.000000 -0.000000 -0.000000 -0.000000 -0.000000 -0.000000 -0.000000 -0.000000 -0.000000 -0.000000 -0.000000 -0.000000 -0.000000 -0.000000 -0.000000 -0.000000 -0.000000 -0.000000 -0.000000 -0.000000 -0.000000 -0.000000 -0.000000 -0.000000 -0.000000 -0.000000 -0.000000 -0.000000 -0.000000 -0.000000 -0.000000 -0.000000 -0.000000 -0.000000 -0.000000 -0.000000 -0.000000 -0.000000 -0.000000 -0.000000 -0.000000 -0.000000 -0.000000 -0.000000 -0.000000 -0.000000 -0.000000 -0.000000 -0.000000 -0.000000 -0.000000 -0.000000 -0.000000 -0.000000 -0.000000 -0.000000 -0.000000 -0.000000 -0.000000 -0.000000 -0.000000 -0.000000 -0.000000 -0.000000 -0.000000 -0.000000 -0.000000 -0.000000 -0.000000 -0.000000 -0.000000 -0.000000 -0.000000 -0.000000 -0.000000 -0.000000 -0.000000 -0.000000 -0.000000 -0.000000 -0.000000 -0.000000 -0.000000 -0.000000 -0.000000 -0.000000 -0.000000 -0.000000 -0.000000 -0.000000 -0.000000 -0.000000 -0.000000 -0.000000 -0.000000 -0.000000 -0.000000 -0.000000 -0.000000 -0.000000 -0.000000 -0.000000 -0.000000 -0.000000 -0.000000 -0.000000 -0.000000 -0.000000 -0.000000 -0.000000 -0.000000 -0.000000 -0.000000 -0.000000 -0.000000 -0.000000 -0.000000 -0.000000 -0.000000 -0.000000 -0.000000 -0.000000 -0.000000 -0.000000 -0.000000 -0.000000 -0.000000 -0.000000 -0.000000 -0.000000 -0.000000 -0.000000 -0.000000 -0.000000 -0.000000 -0.000000 -0.000000 -0.000000 -0.000000 -0.000000 -0.000000 -0.000000 -0.000000 -0.000000 -0.000000 -0.000000 -0.000000 -0.000000 -0.000000 -0.000000 -0.000000 -0.000000 -0.000000 -0.000000 -0.000000 -0.000000 -0.000000 -0.000000 -0.000000 -0.000000 -0.000000 -0.000000 -0.000000 -0.000000 -0.000000 -0.000000 -0.000000 -0.000000 -0.000000 -0.000000 -0.000000 -0.000000 -0.000000 -0.000000 -0.000000 -0.000000 -0.000000 -0.000000 -0.000000 -0.000000 -0.000000 -0.000000 -0.000000 -0.000000 -0.000000 -0.000000 -0.000000 -0.000000 -0.000000 -0.000000 -0.000000 -0.000000 -0.000000 -0.000000 -0.000000 -0.000000 -0.000000 -0.000000 -0.000000 -0.000000 -0.000000 -0.000000 -0.000000 -0.000000 -0.000000 -0.000000 -0.000000 -0.000000 -0.000000 -0.000000 -0.000000 -0.000000 -0.000000 -0.000000 -0.000000 -0.000000 -0.000000 -0.000000 -0.000000 -0.000000 -0.000000 -0.000000 -0.000000 -0.000000 -0.000000 -0.000000 -0.000000 -0.000000 -0.000000 -0.000000 -0.000000 -0.000000 -0.000000 -0.000000 -0.000000 -0.000000 -0.000000 -0.000000 -0.000000 -0.000000 -0.000000 -0.000000 -0.000000 -0.000000 -0.000000 -0.000000 -0.000000 -0.000000 -0.000000 -0.000000 -0.000000 -0.000000 -0.000000 -0.000000 -0.000000 -0.000000 -0.000000 -0.000000 -0.000000 -0.000000 -0.000000 -0.000000 -0.000000 -0.000000 -0.000000 -0.000000 -0.000000 -0.000000 -0.000000 -0.000000 -0.000000 -0.000000 -0.000000 -0.000000 -0.000000 -0.000000 -0.000000 -0.000000 -0.000000 -0.000000 -0.000000 -0.000000 -0.000000 -0.000000 -0.000000 -0.000000 -0.000000 -0.000000 -0.000000 -0.000000 -0.000000 -0.000000 -0.000000 -0.000000 -0.000000 -0.000000 -0.000000 -0.000000 -0.000000 -0.000000 -0.000000 -0.000000 -0.000000 -0.000000 -0.000000 -0.000000 -0.000000 -0.000000 -0.000000 -0.000000 -0.000000 -0.000000 -0.000000 -0.000000 -0.000000 -0.000000 -0.000000 -0.000000 -0.000000 -0.000000 -0.000000 -0.000000 -0.000000 -0.000000 -0.000000 -0.000000 -0.000000 -0.000000 -0.000000 -0.000000 -0.000000 -0.000000 -0.000000 -0.000000 -0.000000 -0.000000 -0.000000 -0.000000 -0.000000 -0.000000 -0.000000 -0.000000 -0.000000 -0.000000 -0.000000 -0.000000 -0.000000 -0.000000 -0.000000 -0.000000 -0.000000 -0.000000 -0.000000 -0.000000 -0.000000 -0.000000 -0.000000 -0.000000 -0.000000 -0.000000 -0.000000 -0.000000 -0.000000 -0.000000 -0.000000 -0.000000 -0.000000 -0.000000 -0.000000 -0.000000 -0.000000 -0.000000 -0.000000 -0.000000 -0.000000 -0.000000 -0.000000 -0.000000 -0.000000 -0.000000 -0.000000 -0.000000 -0.000000 -0.000000 -0.000000 -0.000000 -0.000000 -0.000000 -0.000000 -0.000000 -0.000000 -0.000000 -0.000000 -0.000000 -0.000000 -0.000000 -0.000000 -0.000000 -0.000000 -0.000000 -0.000000 -0.000000 -0.000000 -0.000000 -0.000000 -0.000000 -0.000000 -0.000000 -0.000000 -0.000000 -0.000000 -0.000000 -0.000000 -0.000000 -0.000000 -0.000000 -0.000000 -0.000000 -0.000000 -0.000000 -0.000000 -0.000000 -0.000000 -0.000000 -0.000000 -0.000000 -0.000000 -0.000000 -0.000000 -0.000000 -0.000000 -0.000000 -0.000000 -0.000000 -0.000000 -0.000000 -0.000000 -0.000000 -0.000000 -0.000000 -0.000000 -0.000000 -0.000000 -0.000000 -0.000000 -0.000000 -0.000000 -0.000000 -0.000000 -0.000000 -0.000000 -0.000000 -0.000000 -0.000000 -0.000000 -0.000000 -0.000000 -0.000000 -0.000000 -0.000000 -0.000000 -0.000000 -0.000000 -0.000000 -0.000000 -0.000000 -0.000000 -0.000000 -0.000000 -0.000000 -0.000000 -0.000000 -0.000000 -0.000000 -0.000000 -0.000000 -0.000000 -0.000000 -0.000000 -0.000000 -0.000000 -0.000000 -0.000000 -0.000000 -0.000000 -0.000000 -0.000000 -0.000000 -0.000000 -0.000000 -0.000000 -0.000000 -0.000000 -0.000000 -0.000000 -0.000000 -0.000000 -0.000000 -0.000000 -0.000000 -0.000000 -0.000000 -0.000000 -0.000000 -0.000000 -0.000000 -0.000000 -0.000000 -0.000000 -0.000000 -0.000000 -0.000000 -0.000000 -0.000000 -0.000000 -0.000000 -0.000000 -0.000000 -0.000000 -0.000000 -0.000000 -0.000000 -0.000000 -0.000000 -0.000000 -0.000000 -0.000000 -0.000000 -0.000000 -0.000000 -0.000000 -0.000000 -0.000000 -0.000000 -0.000000 -0.000000 -0.000000 -0.000000 -0.000000 -0.000000 -0.000000 -0.000000 -0.000000 -0.000000 -0.000000 -0.000000 -0.000000 -0.000000 -0.000000 -0.000000 -0.000000 -0.000000 -0.000000 -0.000000 -0.000000 -0.000000 -0.000000 -0.000000 -0.000000 -0.000000 -0.000000 -0.000000 -0.000000 -0.000000 -0.000000 -0.000000 -0.000000 -0.000000 -0.000000 -0.000000 -0.000000 -0.000000 -0.000000 -0.000000 -0.000000 -0.000000 -0.000000 -0.000000 -0.000000 -0.000000 -0.000000 -0.000000 -0.000000 -0.000000 -0.000000 -0.000000 -0.000000 -0.000000 -0.000000 -0.000000 -0.000000 -0.000000 -0.000000 -0.000000 -0.000000 -0.000000 -0.000000 -0.000000 -0.000000 -0.000000 -0.000000 -0.000000 -0.000000 -0.000000 -0.000000 -0.000000 -0.000000 -0.000000 -0.000000 -0.000000 -0.000000 -0.000000 -0.000000 -0.000000 -0.000000 -0.000000 -0.000000 -0.000000 -0.000000 -0.000000 -0.000000 -0.000000 -0.000000 -0.000000 -0.000000 -0.000000 -0.000000 -0.000000 -0.000000 -0.000000 -0.000000 -0.000000 -0.000000 -0.000000 -0.000000 -0.000000 -0.000000 -0.000000 -0.000000 -0.000000 -0.000000 -0.000000 -0.000000 -0.000000 -0.000000 -0.000000 -0.000000 -0.000000 -0.000000 -0.000000 -0.000000 -0.000000 -0.000000 -0.000000 -0.000000 -0.000000 -0.000000 -0.000000 -0.000000 -0.000000 -0.000000 -0.000000 -0.000000 -0.000000 -0.000000 -0.000000 -0.000000 -0.000000 -0.000000 -0.000000 -0.000000 -0.000000 -0.000000 -0.000000 -0.000000 -0.000000 -0.000000 -0.000000 -0.000000 -0.000000 -0.000000 -0.000000 -0.000000 -0.000000 -0.000000 -0.000000 -0.000000 -0.000000 -0.000000 -0.000000 -0.000000 -0.000000 -0.000000 -0.000000 -0.000000 -0.000000 -0.000000 -0.000000 -0.000000 -0.000000 -0.000000 -0.000000 -0.000000 -0.000000 -0.000000 -0.000000 -0.000000 -0.000000 -0.000000 -0.000000 -0.000000 -0.000000 -0.000000 -0.000000 -0.000000 -0.000000 -0.000000 -0.000000 -0.000000 -0.000000 -0.000000 -0.000000 -0.000000 -0.000000 -0.000000 -0.000000 -0.000000 -0.000000 -0.000000 -0.000000 -0.000001 -0.000001 -0.000000 -0.000000 -0.000000 -0.000000 -0.000000 -0.000000 -0.000000 -0.000000 -0.000000 -0.000000 -0.000000 -0.000000 0.000000 0.000000 0.000000 0.000000 0.000000 0.000000 0.000001 0.000001 0.000001 0.000001 0.000001 0.000001 0.000002 0.000002 0.000002 0.000002 0.000002 0.000002 0.000004 0.000004 0.000004 0.000004 0.000004 0.000004 0.000007 0.000007 0.000007 0.000007 0.000007 0.000007 0.000012 0.000012 0.000012 0.000012 0.000012 0.000011 0.000019 0.000019 0.000019 0.000019 0.000019 0.000019 0.000030 0.000030 0.000030 0.000030 0.000030 0.000031 0.000046 0.000046 0.000046 0.000046 0.000048 0.000050 0.000070 0.000070 0.000070 0.000070 0.000075 0.000083 0.000103 0.000103 0.000103 0.000104 0.000119 0.000143 0.000147 0.000147 0.000147 0.000151 0.000193 0.000268 0.000203 0.000203 0.000203 0.000211 0.000308 0.000564 0.000265 0.000265 0.000265 0.000279 0.000447 0.000952 0.001852 0.003241 0.005118 0.007886 0.012088 0.018528 0.028424 0.043609 0.066810 0.102039 0.155099 0.234247 0.351022 0.521236 0.766120 1.113570 1.599413 2.268591 3.176123 4.387738 5.980109 8.040743 10.667753 13.969937 18.067792 23.096123 29.208738 36.585081 45.437584 56.016930 68.610582 83.528313 101.067744 121.453743 144.748736 170.736425 198.788689 227.732807 255.741447 280.268622 298.049734 305.173769 297.223482 269.464843 217.033677 134.960198 17.570114 -143.910675 -368.202029 -701.370329 -1254.420839 -2417.971404 -3429.156249 772.670073 2996.117056 -410.506102 -3359.298544 -6441.977521 -10080.618515 -2873.862439 7677.493425 6204.760663 -2059.204722 -3310.743148 14198.577039 7939.004647 5859.253292 7859.702059 6055.901039 8868.304735 7461.694719 13185.013738 3086.332165 6939.885508 12314.557356 12824.796317 15777.565892 15191.585835 13708.430643 14625.456285 14122.305179 14010.687894 15817.521360 20686.064121 21129.327562 20755.159325 21949.041970 19614.796953 18287.603776 20832.993696 20656.377865 20429.194499 21734.844248 19414.027025 19406.695971 20613.263611 22164.680236 24556.149415 21526.272107 21984.506950 24503.780952 22545.711946 22355.306517 22355.306517 22355.306517 0.000331 0.000331 0.000331 0.000348 0.000570 0.001197 0.002086 0.003378 0.005268 0.008100 0.012412 0.019026 0.029185 0.044763 0.068544 0.104615 0.158874 0.239702 0.358784 0.532102 0.781072 1.133780 1.626232 2.303512 3.220737 4.443668 6.048960 8.124079 10.767140 14.087081 18.204785 23.255767 29.394863 36.802695 45.692618 56.315293 68.956292 83.920590 101.497213 121.898322 145.170198 171.079121 198.982297 227.701400 255.421855 279.642694 297.198942 304.372283 297.099774 271.285469 223.205080 149.932402 49.538659 -79.562047 -241.334619 -448.246786 -728.759261 -1072.095103 -1212.322037 327.953697 1015.723876 -177.375261 -1461.058228 -2582.418611 -2615.444600 2676.700895 8730.036088 5511.959129 2689.540867 3228.595617 8401.134672 7618.815677 6835.918176 7321.297414 8016.330494 9060.394388 9348.354722 10677.826859 9101.107996 11009.840783 12215.903424 13034.629105 14188.378121 14279.705231 15167.649008 15150.694983 14973.779275 15149.475520 15779.649077 17836.599388 18865.856749 19647.213017 20082.045840 18912.617351 19402.766101 20092.548099 20814.682995 21212.233659 21684.040357 20546.403927 20155.540342 18880.092367 20579.191467 24548.396797 25558.431374 24050.237608 23320.312366 22352.178211 22312.446549 22312.446549 22312.446549 0.000369 0.000369 0.000369 0.000390 0.000634 0.001309 0.002212 0.003512 0.005439 0.008349 0.012792 0.019608 0.030075 0.046112 0.070569 0.107617 0.163268 0.246041 0.367789 0.544689 0.798366 1.157122 1.657162 2.343734 3.272062 4.507947 6.128026 8.219725 10.881176 14.221493 18.362007 23.439043 29.608583 37.052530 45.985179 56.657017 69.351269 84.367236 101.983980 122.399052 145.640240 171.453789 199.179618 227.631426 255.005319 278.843210 296.076340 303.171793 296.404536 272.281318 228.144743 162.966178 78.269848 -20.978192 -125.722707 -222.221800 -289.124447 -285.586101 -127.575266 182.571797 356.163059 279.971315 183.652916 351.322541 1129.428846 2652.742256 3868.483866 4071.388682 4187.161231 4919.101524 5882.208806 6493.325497 7073.879784 7792.039287 8570.343442 9380.633316 10107.899616 10733.948583 11257.837196 11951.708207 12640.552639 13233.226186 13778.617455 14307.557030 14780.950307 15136.055658 15369.909077 15668.872137 16186.873733 16946.179064 17724.985133 18423.838741 18965.895099 19330.947849 19805.752927 20294.293325 20811.687371 21294.293767 21648.620945 21823.430927 21944.365787 21948.406657 22286.576596 22983.062358 23350.499660 22874.289377 22480.136199 22261.568659 22260.780069 22260.780069 22260.780069 0.000375 0.000375 0.000375 0.000396 0.000643 0.001324 0.002231 0.003534 0.005469 0.008394 0.012860 0.019714 0.030237 0.046357 0.070936 0.108160 0.164063 0.247187 0.369416 0.546960 0.801485 1.161328 1.662730 2.350970 3.281288 4.519496 6.142224 8.236896 10.901646 14.245620 18.390232 23.471951 29.646962 37.097389 46.037685 56.718290 69.421989 84.447051 102.070736 122.487972 145.723234 171.519166 199.212544 227.615487 254.925636 278.691748 295.860580 302.929045 296.226133 272.354288 228.824340 164.904963 82.658124 -11.938612 -107.868610 -187.744605 -225.575157 -185.283814 -34.796541 185.172976 330.472629 360.353577 428.610662 753.589415 1508.277815 2595.400294 3488.174377 3919.683452 4305.885630 4966.369428 5742.890582 6421.771532 7101.203162 7851.830944 8639.112685 9423.293867 10150.985580 10811.205492 11428.826447 12072.876201 12688.382397 13244.185045 13767.800373 14272.309254 14716.889159 15066.983787 15358.066550 15704.534900 16206.969319 16872.161670 17586.003927 18256.140881 18826.762305 19314.308818 19794.750286 20290.269074 20795.205128 21265.384422 21644.000431 21930.986088 22143.613368 22317.003275 22557.743043 22804.072654 22867.177623 22692.540870 22433.748400 22277.287662 22250.361424 22250.361424 22250.361424 0.000375 0.000375 0.000375 0.000396 0.000643 0.001324 0.002231 0.003534 0.005469 0.008394 0.012860 0.019714 0.030237 0.046357 0.070936 0.108160 0.164063 0.247187 0.369416 0.546960 0.801485 1.161328 1.662730 2.350970 3.281288 4.519496 6.142224 8.236896 10.901646 14.245620 18.390232 23.471951 29.646962 37.097389 46.037685 56.718290 69.421989 84.447051 102.070736 122.487972 145.723234 171.519166 199.212544 227.615487 254.925636 278.691748 295.860580 302.929045 296.226133 272.354288 228.824340 164.904963 82.658124 -11.938612 -107.868610 -187.744605 -225.575157 -185.283814 -34.796541 185.172976 330.472629 360.353577 428.610662 753.589415 1508.277815 2595.400294 3488.174377 3919.683452 4305.885630 4966.369428 5742.890582 6421.771532 7101.203162 7851.830944 8639.112685 9423.293867 10150.985580 10811.205492 11428.826447 12072.876201 12688.382397 13244.185045 13767.800373 14272.309254 14716.889159 15066.983787 15358.066550 15704.534900 16206.969319 16872.161670 17586.003927 18256.140881 18826.762305 19314.308818 19794.750286 20290.269074 20795.205128 21265.384422 21644.000431 21930.986088 22143.613368 22317.003275 22557.743043 22804.072654 22867.177623 22692.540870 22433.748400 22277.287662 22250.361424 22250.361424 22250.361424 0.000375 0.000375 0.000375 0.000396 0.000643 0.001324 0.002231 0.003534 0.005469 0.008394 0.012860 0.019714 0.030237 0.046357 0.070936 0.108160 0.164063 0.247187 0.369416 0.546960 0.801485 1.161328 1.662730 2.350970 3.281288 4.519496 6.142224 8.236896 10.901646 14.245620 18.390232 23.471951 29.646962 37.097389 46.037685 56.718290 69.421989 84.447051 102.070736 122.487972 145.723234 171.519166 199.212544 227.615487 254.925636 278.691748 295.860580 302.929045 296.226133 272.354288 228.824340 164.904963 82.658124 -11.938612 -107.868610 -187.744605 -225.575157 -185.283814 -34.796541 185.172976 330.472629 360.353577 428.610662 753.589415 1508.277815 2595.400294 3488.174377 3919.683452 4305.885630 4966.369428 5742.890582 6421.771532 7101.203162 7851.830944 8639.112685 9423.293867 10150.985580 10811.205492 11428.826447 12072.876201 12688.382397 13244.185045 13767.800373 14272.309254 14716.889159 15066.983787 15358.066550 15704.534900 16206.969319 16872.161670 17586.003927 18256.140881 18826.762305 19314.308818 19794.750286 20290.269074 20795.205128 21265.384422 21644.000431 21930.986088 22143.613368 22317.003275 22557.743043 22804.072654 22867.177623 22692.540870 22433.748400 22277.287662 22250.361424 22250.361424 22250.361424 -1396.406392 -1472.443642 -1580.182376 -1738.479229 -1980.816480 -2459.009819 -2441.338457 -654.770176 -186.256902 -1217.332529 -1517.367375 284.147011 904.143833 14.740009 -740.289974 -1455.377436 -325.029239 1277.385653 493.467136 -596.779328 -1779.908585 -2970.044426 -1243.823013 762.589195 3895.972957 3057.478836 860.774676 -1279.566140 -1247.653819 2303.936058 1112.359675 1810.427145 4795.195001 6421.849312 7492.237780 6726.642867 6585.471983 9730.242874 10802.704382 8397.567124 9837.251076 10570.105169 11047.894939 11089.132605 10918.281063 11154.861434 14138.569022 14805.280080 14632.481458 13843.611772 13268.388955 12462.676187 12932.742460 13066.929982 13066.929982 13066.929982 -672.825229 -33.842858 6015.317575 20571.069376 15775.160486 11520.992124 14377.679047 15158.658813 17550.445036 14869.134293 14148.294387 20788.794425 13138.094005 15229.245561 13489.366483 14754.740394 15256.524279 12618.134872 15463.818440 14054.629176 12485.974048 12666.916792 13602.818317 11997.331259 12255.011899 13202.233142 16365.339283 11712.008467 11863.093672 15225.934208 11922.138380 14620.031827 12112.714117 11851.010934 13553.146293 13491.675737 13737.651935 13806.094057 14819.225178 15313.792489 12828.152909 15483.499762 14376.423096 14999.283557 13522.175873 16317.705040 9663.393039 14303.341874 13293.797171 15791.581730 14886.047609 13041.281889 13126.809829 13225.483808 13225.483808 13225.483808 163.322954 -2604.803363 14812.937392 7043.866545 16859.587694 12481.737013 15041.725380 19568.423344 14027.377824 13858.473031 15667.389215 14700.447214 16355.092150 18188.336737 15973.344703 17539.301424 13913.360922 14600.947294 16142.447920 18896.297787 14571.061076 13689.970685 12333.138335 14214.532948 12906.824173 12427.450779 16912.872885 16055.129559 13622.735128 11985.514326 12166.981932 12154.082512 12871.734259 13561.219572 11623.854994 11192.292811 14615.256492 13244.029892 12089.373567 14832.286592 12179.990635 12047.814138 11659.819676 15103.923232 10804.893725 11617.319502 13475.016747 14103.600502 11633.800682 14389.847145 15382.913747 14768.113815 13688.857809 13573.506751 13573.506751 13573.506751 109.096009 1322.913030 15397.088579 16319.655713 18059.667380 17062.290219 16665.493391 18127.634673 11534.306127 17596.720123 16406.056761 15757.670195 15375.265403 14062.040683 17025.491743 15228.316307 16608.148245 15460.876458 17637.133159 18850.350956 22805.462100 17107.575464 12555.782122 14599.373181 18785.243186 13300.098576 13929.82