<VTKFile type="PolyData">
<PolyData>
<Piece NumberOfPoints="8632" NumberOfVerts="8632" NumberOfLines="0" NumberOfStrips="0" NumberOfPolys="0">
<PointData>
<DataArray type="Float64" Name="Pressure" format="ascii">
 -0.897551 -0.897551 -0.897551 -0.915075 -1.112404 -1.626939 -2.223219 -2.924960 -3.741242 -4.686516 -5.782192 -7.054767 -8.534755 -10.256355 -12.257512 -14.580118 -17.270263 -20.378496 -23.960060 -28.075110 -32.788884 -38.171828 -44.299672 -51.253434 -59.119353 -67.988744 -77.957767 -89.127093 -101.601482 -115.489255 -130.901675 -147.952234 -166.755860 -187.428068 -210.084070 -234.837868 -261.801371 -291.083543 -322.789620 -357.020373 -393.871399 -433.432359 -475.786021 -521.006896 -569.159144 -620.293325 -674.441427 -731.609365 -791.765730 -854.824473 -920.616398 -988.837171 -1058.942083 -1129.924583 -1199.872674 -1265.574910 -1322.874690 -1366.381409 -1386.418029 -1365.821985 -1280.072772 -1117.645089 -929.024989 -782.679431 -651.648658 -486.330334 -329.870002 -249.583987 -222.289403 -182.219686 -78.734212 89.144182 251.730581 323.371267 301.289663 304.085032 398.691339 489.153801 550.344428 673.159752 910.250981 1228.547295 1565.152015 1918.409774 2326.810360 2804.749278 3350.122254 3940.389028 4546.953795 5145.307688 5722.127123 6275.292742 6817.127079 7363.480261 7903.782267 8425.113035 8931.164095 9423.472080 9897.252162 10332.889020 10706.128858 11010.988943 11261.176362 11476.027781 11661.484939 11805.895654 11896.857809 11936.237974 11942.261641 11942.261641 11942.261641 -0.897551 -0.897551 -0.897551 -0.915075 -1.112404 -1.626939 -2.223219 -2.924960 -3.741242 -4.686516 -5.782192 -7.054767 -8.534755 -10.256355 -12.257512 -14.580118 -17.270263 -20.378496 -23.960060 -28.075110 -32.788884 -38.171828 -44.299672 -51.253434 -59.119353 -67.988744 -77.957767 -89.127093 -101.601482 -115.489255 -130.901675 -147.952234 -166.755860 -187.428068 -210.084070 -234.837868 -261.801371 -291.083543 -322.789620 -357.020373 -393.871399 -433.432359 -475.786021 -521.006896 -569.159144 -620.293325 -674.441427 -731.609365 -791.765730 -854.824473 -920.616398 -988.837171 -1058.942083 -1129.924583 -1199.872674 -1265.574910 -1322.874690 -1366.381409 -1386.418029 -1365.821985 -1280.072772 -1117.645089 -929.024989 -782.679431 -651.648658 -486.330334 -329.870002 -249.583987 -222.289403 -182.219686 -78.734212 89.144182 251.730581 323.371267 301.289663 304.085032 398.691339 489.153801 550.344428 673.159752 910.250981 1228.547295 1565.152015 1918.409774 2326.810360 2804.749278 3350.122254 3940.389028 4546.953795 5145.307688 5722.127123 6275.292742 6817.127079 7363.480261 7903.782267 8425.113035 8931.164095 9423.472080 9897.252162 10332.889020 10706.128858 11010.988943 11261.176362 11476.027781 11661.484939 11805.895654 11896.857809 11936.237974 11942.261641 11942.261641 11942.261641 -0.897551 -0.897551 -0.897551 -0.915075 -1.112404 -1.626939 -2.223219 -2.924960 -3.741242 -4.686516 -5.782192 -7.054767 -8.534755 -10.256355 -12.257512 -14.580118 -17.270263 -20.378496 -23.960060 -28.075110 -32.788884 -38.171828 -44.299672 -51.253434 -59.119353 -67.988744 -77.957767 -89.127093 -101.601482 -115.489255 -130.901675 -147.952234 -166.755860 -187.428068 -210.084070 -234.837868 -261.801371 -291.083543 -322.789620 -357.020373 -393.871399 -433.432359 -475.786021 -521.006896 -569.159144 -620.293325 -674.441427 -731.609365 -791.765730 -854.824473 -920.616398 -988.837171 -1058.942083 -1129.924583 -1199.872674 -1265.574910 -1322.874690 -1366.381409 -1386.418029 -1365.821985 -1280.072772 -1117.645089 -929.024989 -782.679431 -651.648658 -486.330334 -329.870002 -249.583987 -222.289403 -182.219686 -78.734212 89.144182 251.730581 323.371267 301.289663 304.085032 398.691339 489.153801 550.344428 673.159752 910.250981 1228.547295 1565.152015 1918.409774 2326.810360 2804.749278 3350.122254 3940.389028 4546.953795 5145.307688 5722.127123 6275.292742 6817.127079 7363.480261 7903.782267 8425.113035 8931.164095 9423.472080 9897.252162 10332.889020 10706.128858 11010.988943 11261.176362 11476.027781 11661.484939 11805.895654 11896.857809 11936.237974 11942.261641 11942.261641 11942.261641 -0.892066 -0.892066 -0.892066 -0.909225 -1.104906 -1.615662 -2.212795 -2.918212 -3.737155 -4.683477 -5.779340 -7.051707 -8.531299 -10.252397 -12.252976 -14.574937 -17.264371 -20.371823 -23.952537 -28.066665 -32.779441 -38.161313 -44.288010 -51.240548 -59.105171 -67.973198 -77.940790 -89.108625 -101.581471 -115.467657 -130.878456 -147.927371 -166.729341 -187.399895 -210.054256 -234.806439 -261.768363 -291.049006 -322.753612 -356.982962 -393.832665 -433.392397 -475.744952 -520.964889 -569.116463 -620.250431 -674.399199 -731.569636 -791.732560 -854.807273 -920.637615 -988.950962 -1059.277122 -1130.767687 -1201.652809 -1268.667549 -1327.649114 -1374.348051 -1400.513247 -1390.946572 -1315.812225 -1137.425934 -917.692153 -781.454007 -665.481957 -492.885446 -297.713237 -225.927358 -218.140849 -192.082567 -89.676525 109.409445 309.369861 382.620297 307.965596 283.361364 426.465624 539.248056 575.040082 678.912248 922.943648 1267.903254 1598.455625 1933.302181 2335.000058 2803.604762 3351.881262 3948.814078 4573.347336 5188.943816 5776.708472 6326.463486 6852.523338 7395.649807 7936.687143 8450.946608 8954.050236 9447.996142 9935.444773 10386.061582 10760.427218 11052.349647 11285.448483 11490.558518 11676.628938 11826.298973 11917.888258 11956.066974 11962.882473 11962.882473 11962.882473 -0.832918 -0.832918 -0.832918 -0.846408 -1.013963 -1.465179 -2.078216 -2.846719 -3.696039 -4.653289 -5.750949 -7.021181 -8.496793 -10.212869 -12.207667 -14.523173 -17.205491 -20.305149 -23.877366 -27.982271 -32.685083 -38.056236 -44.171457 -51.111772 -58.963442 -67.817816 -77.771102 -88.924035 -101.381453 -115.251773 -130.646364 -147.678840 -166.464257 -187.118267 -209.756219 -234.492251 -261.438399 -290.703749 -322.393646 -356.608969 -393.445439 -432.992885 -475.334358 -520.544888 -568.689658 -619.821336 -673.976447 -731.171123 -791.397847 -854.627964 -920.832463 -990.051168 -1062.575802 -1139.285606 -1222.227214 -1305.132061 -1380.416972 -1461.053385 -1556.810003 -1672.707650 -1810.226182 -1343.526003 -624.066528 -722.057031 -1004.065898 -610.196646 167.857501 80.136867 -169.657083 -339.598021 -281.411661 323.570223 1032.280669 1102.038813 185.781334 -346.099244 807.624040 1286.082161 885.019569 658.576522 984.176809 1715.412818 1934.035365 2041.271409 2445.212887 2808.767350 3380.224803 4054.947446 4913.760359 5774.531137 6515.788130 6998.359695 7242.191814 7736.059096 8309.182427 8706.222316 9131.313347 9649.607089 10335.600149 11037.136013 11441.174058 11582.053761 11606.188269 11718.121570 11926.539213 12132.583803 12189.853995 12187.072108 12187.687208 12187.687208 12187.687208 -0.749953 -0.749953 -0.749953 -0.760365 -0.880450 -1.199711 -1.785015 -2.724488 -3.638838 -4.615403 -5.717401 -6.986042 -8.457455 -10.167950 -12.156230 -14.464425 -17.138667 -20.229472 -23.792036 -27.886462 -32.577948 -37.936917 -44.039093 -50.965510 -58.802451 -67.641300 -77.578314 -88.714295 -101.154163 -115.006431 -130.382582 -147.396351 -166.162931 -186.798115 -209.417395 -234.135049 -261.063246 -290.311197 -321.984362 -356.183731 -393.005153 -432.538640 -474.867554 -520.067530 -568.204979 -619.335193 -673.500519 -730.730508 -791.049507 -854.506225 -921.262444 -991.835152 -1067.735137 -1153.174259 -1259.984912 -1359.088537 -1444.424078 -1562.842738 -1742.864982 -2041.742889 -2519.512756 -1627.492176 -147.065764 -616.880452 -1514.424788 -652.038819 932.491098 531.441905 -104.251867 -518.105569 -399.184964 717.559717 2079.591332 2441.370384 -1132.964245 -2643.990962 1812.697367 2874.316407 1254.944295 363.779466 -319.698768 2617.704758 1540.692679 1681.103849 3270.884618 2371.459801 3911.350315 3828.762965 5798.508820 6779.744568 7900.664916 8503.952306 7159.888015 7883.385931 9006.616408 8578.212026 9107.615671 9287.257783 10487.701645 11998.214947 12605.823776 12406.439567 12332.964410 12387.421334 12729.304715 13016.417324 12735.040267 12531.739138 12505.696935 12505.696935 12505.696935 -0.738425 -0.738425 -0.738425 -0.748397 -0.862378 -1.158032 -0.660050 -0.660050 -0.660050 -0.666526 -0.740155 -0.901143 -0.541566 -0.541566 -0.541566 -0.544435 -0.574889 -0.626550 -0.437988 -0.437988 -0.437988 -0.439068 -0.449743 -0.467371 -0.351123 -0.351123 -0.351123 -0.351428 -0.354352 -0.359658 -0.279770 -0.279770 -0.279770 -0.279786 -0.279889 -0.280764 -0.221860 -0.221860 -0.221860 -0.221782 -0.220979 -0.220362 -0.175219 -0.175219 -0.175219 -0.175120 -0.174124 -0.173110 -0.137861 -0.137861 -0.137861 -0.137767 -0.136828 -0.135809 -0.108075 -0.108075 -0.108075 -0.107994 -0.107184 -0.106286 -0.084423 -0.084423 -0.084423 -0.084356 -0.083685 -0.082934 -0.065715 -0.065715 -0.065715 -0.065660 -0.065115 -0.064502 -0.050972 -0.050972 -0.050972 -0.050928 -0.050490 -0.049997 -0.039398 -0.039398 -0.039398 -0.039363 -0.039014 -0.038620 -0.030345 -0.030345 -0.030345 -0.030318 -0.030040 -0.029728 -0.023290 -0.023290 -0.023290 -0.023268 -0.023049 -0.022803 -0.017812 -0.017812 -0.017812 -0.017795 -0.017623 -0.017429 -0.013575 -0.013575 -0.013575 -0.013561 -0.013427 -0.013275 -0.010309 -0.010309 -0.010309 -0.010298 -0.010193 -0.010075 -0.007801 -0.007801 -0.007801 -0.007793 -0.007711 -0.007619 -0.005882 -0.005882 -0.005882 -0.005876 -0.005813 -0.005742 -0.004420 -0.004420 -0.004420 -0.004415 -0.004366 -0.004312 -0.003309 -0.003309 -0.003309 -0.003306 -0.003268 -0.003226 -0.002469 -0.002469 -0.002469 -0.002466 -0.002438 -0.002405 -0.001835 -0.001835 -0.001835 -0.001833 -0.001812 -0.001787 -0.001360 -0.001360 -0.001360 -0.001358 -0.001342 -0.001323 -0.001004 -0.001004 -0.001004 -0.001002 -0.000990 -0.000976 -0.000738 -0.000738 -0.000738 -0.000737 -0.000728 -0.000717 -0.000541 -0.000541 -0.000541 -0.000540 -0.000533 -0.000525 -0.000395 -0.000395 -0.000395 -0.000395 -0.000389 -0.000383 -0.000288 -0.000288 -0.000288 -0.000287 -0.000283 -0.000279 -0.000209 -0.000209 -0.000209 -0.000208 -0.000205 -0.000202 -0.000151 -0.000151 -0.000151 -0.000150 -0.000148 -0.000146 -0.000108 -0.000108 -0.000108 -0.000108 -0.000107 -0.000105 -0.000078 -0.000078 -0.000078 -0.000078 -0.000077 -0.000075 -0.000056 -0.000056 -0.000056 -0.000056 -0.000055 -0.000054 -0.000040 -0.000040 -0.000040 -0.000040 -0.000039 -0.000038 -0.000028 -0.000028 -0.000028 -0.000028 -0.000028 -0.000027 -0.000020 -0.000020 -0.000020 -0.000020 -0.000020 -0.000019 -0.000014 -0.000014 -0.000014 -0.000014 -0.000014 -0.000014 -0.000010 -0.000010 -0.000010 -0.000010 -0.000010 -0.000009 -0.000007 -0.000007 -0.000007 -0.000007 -0.000007 -0.000007 -0.000005 -0.000005 -0.000005 -0.000005 -0.000005 -0.000005 -0.000003 -0.000003 -0.000003 -0.000003 -0.000003 -0.000003 -0.000002 -0.000002 -0.000002 -0.000002 -0.000002 -0.000002 -0.000002 -0.000002 -0.000002 -0.000002 -0.000002 -0.000002 -0.000001 -0.000001 -0.000001 -0.000001 -0.000001 -0.000001 -0.000001 -0.000001 -0.000001 -0.000001 -0.000001 -0.000001 -0.000001 -0.000001 -0.000001 -0.000001 -0.000001 -0.000000 -0.000000 -0.000000 -0.000000 -0.000000 -0.000000 -0.000000 -0.000000 -0.000000 -0.000000 -0.000000 -0.000000 -0.000000 -0.000000 -0.000000 -0.000000 -0.000000 -0.000000 -0.000000 -0.000000 -0.000000 -0.000000 -0.000000 -0.000000 -0.000000 -0.000000 -0.000000 -0.000000 -0.000000 -0.000000 -0.000000 -0.000000 -0.000000 -0.000000 -0.000000 -0.000000 -0.000000 -0.000000 -0.000000 -0.000000 -0.000000 -0.000000 -0.000000 -0.000000 -0.000000 -0.000000 -0.000000 -0.000000 -0.000000 -0.000000 -0.000000 -0.000000 -0.000000 -0.000000 -0.000000 -0.000000 -0.000000 -0.000000 -0.000000 -0.000000 -0.000000 -0.000000 -0.000000 -0.000000 -0.000000 -0.000000 -0.000000 -0.000000 -0.000000 -0.000000 -0.000000 -0.000000 -0.000000 -0.000000 -0.000000 -0.000000 -0.000000 -0.000000 -0.000000 -0.000000 -0.000000 -0.000000 -0.000000 -0.000000 -0.000000 -0.000000 -0.000000 -0.000000 -0.000000 -0.000000 -0.000000 -0.000000 -0.000000 -0.000000 -0.000000 -0.000000 -0.000000 -0.000000 -0.000000 -0.000000 -0.000000 -0.000000 -0.000000 -0.000000 -0.000000 -0.000000 -0.000000 -0.000000 -0.000000 -0.000000 -0.000000 -0.000000 -0.000000 -0.000000 -0.000000 -0.000000 -0.000000 -0.000000 -0.000000 -0.000000 -0.000000 -0.000000 -0.000000 -0.000000 -0.000000 -0.000000 -0.000000 -0.000000 -0.000000 -0.000000 -0.000000 -0.000000 -0.000000 -0.000000 -0.000000 -0.000000 -0.000000 -0.000000 -0.000000 -0.000000 -0.000000 -0.000000 -0.000000 -0.000000 -0.000000 -0.000000 -0.000000 -0.000000 -0.000000 -0.000000 -0.000000 -0.000000 -0.000000 -0.000000 -0.000000 -0.000000 -0.000000 -0.000000 -0.000000 -0.000000 -0.000000 -0.000000 -0.000000 -0.000000 -0.000000 -0.000000 -0.000000 -0.000000 -0.000000 -0.000000 -0.000000 -0.000000 -0.000000 -0.000000 -0.000000 -0.000000 -0.000000 -0.000000 -0.000000 -0.000000 -0.000000 -0.000000 -0.000000 -0.000000 -0.000000 -0.000000 -0.000000 -0.000000 -0.000000 -0.000000 -0.000000 -0.000000 -0.000000 -0.000000 -0.000000 -0.000000 -0.000000 -0.000000 -0.000000 -0.000000 -0.000000 -0.000000 -0.000000 -0.000000 -0.000000 -0.000000 -0.000000 -0.000000 -0.000000 -0.000000 -0.000000 -0.000000 -0.000000 -0.000000 -0.000000 -0.000000 -0.000000 -0.000000 -0.000000 -0.000000 -0.000000 -0.000000 -0.000000 -0.000000 -0.000000 -0.000000 -0.000000 -0.000000 -0.000000 -0.000000 -0.000000 -0.000000 -0.000000 -0.000000 -0.000000 -0.000000 -0.000000 -0.000000 -0.000000 -0.000000 -0.000000 -0.000000 -0.000000 -0.000000 -0.000000 -0.000000 -0.000000 -0.000000 -0.000000 -0.000000 -0.000000 -0.000000 -0.000000 -0.000000 -0.000000 -0.000000 -0.000000 -0.000000 -0.000000 -0.000000 -0.000000 -0.000000 -0.000000 -0.000000 -0.000000 -0.000000 -0.000000 -0.000000 -0.000000 -0.000000 -0.000000 -0.000000 -0.000000 -0.000000 -0.000000 -0.000000 -0.000000 -0.000000 -0.000000 -0.000000 -0.000000 -0.000000 -0.000000 -0.000000 -0.000000 -0.000000 -0.000000 -0.000000 -0.000000 -0.000000 -0.000000 -0.000000 -0.000000 -0.000000 -0.000000 -0.000000 -0.000000 -0.000000 -0.000000 -0.000000 -0.000000 -0.000000 -0.000000 -0.000000 -0.000000 -0.000000 -0.000000 -0.000000 -0.000000 -0.000000 -0.000000 -0.000000 -0.000000 -0.000000 -0.000000 -0.000000 -0.000000 -0.000000 -0.000000 -0.000000 -0.000000 -0.000000 -0.000000 -0.000000 -0.000000 -0.000000 -0.000000 -0.000000 -0.000000 -0.000000 -0.000000 -0.000000 -0.000000 -0.000000 -0.000000 -0.000000 -0.000000 -0.000000 -0.000000 -0.000000 -0.000000 -0.000000 -0.000000 -0.000000 -0.000000 -0.000000 -0.000000 -0.000000 -0.000000 -0.000000 -0.000000 -0.000000 -0.000000 -0.000000 -0.000000 -0.000000 -0.000000 -0.000000 -0.000000 -0.000000 -0.000000 -0.000000 -0.000000 -0.000000 -0.000000 -0.000000 -0.000000 -0.000000 -0.000000 -0.000000 -0.000000 -0.000000 -0.000000 -0.000000 -0.000000 -0.000000 -0.000000 -0.000000 -0.000000 -0.000000 -0.000000 -0.000000 -0.000000 -0.000000 -0.000000 -0.000000 -0.000000 -0.000000 -0.000000 -0.000000 -0.000000 -0.000000 -0.000000 -0.000000 -0.000000 -0.000000 -0.000000 -0.000000 -0.000000 -0.000000 -0.000000 -0.000000 -0.000000 -0.000000 -0.000000 -0.000000 -0.000000 -0.000000 -0.000000 -0.000000 -0.000000 -0.000000 -0.000000 -0.000000 -0.000000 -0.000000 -0.000000 -0.000000 -0.000000 -0.000000 -0.000000 -0.000000 -0.000000 -0.000000 -0.000000 -0.000000 -0.000000 -0.000000 -0.000000 -0.000000 -0.000000 -0.000000 -0.000000 -0.000000 -0.000000 -0.000000 -0.000000 -0.000000 -0.000000 -0.000000 -0.000000 -0.000000 -0.000000 -0.000000 -0.000000 -0.000000 -0.000000 -0.000000 -0.000000 -0.000000 -0.000000 -0.000000 -0.000000 -0.000000 -0.000000 -0.000000 -0.000000 -0.000000 -0.000000 -0.000000 -0.000000 -0.000000 -0.000000 -0.000000 -0.000000 -0.000000 -0.000000 -0.000000 -0.000000 -0.000000 -0.000000 -0.000000 -0.000000 -0.000000 -0.000000 -0.000000 -0.000000 -0.000000 -0.000000 -0.000000 -0.000000 -0.000000 -0.000000 -0.000000 -0.000000 -0.000000 -0.000000 -0.000000 -0.000000 -0.000000 -0.000000 -0.000000 -0.000000 -0.000000 -0.000000 -0.000000 -0.000000 -0.000000 -0.000000 -0.000000 -0.000000 -0.000000 -0.000000 -0.000000 -0.000000 -0.000000 -0.000000 -0.000000 -0.000000 -0.000000 -0.000000 -0.000000 -0.000000 -0.000000 -0.000000 -0.000000 -0.000000 -0.000000 -0.000000 -0.000000 -0.000000 -0.000000 -0.000000 -0.000000 -0.000000 -0.000000 -0.000000 -0.000000 -0.000000 -0.000000 -0.000000 -0.000000 -0.000000 -0.000000 -0.000000 -0.000000 -0.000000 -0.000000 -0.000000 -0.000000 -0.000000 -0.000000 -0.000000 -0.000000 -0.000000 -0.000000 -0.000000 -0.000000 -0.000000 -0.000000 -0.000000 -0.000000 -0.000000 -0.000000 -0.000000 -0.000000 -0.000000 -0.000000 -0.000000 -0.000000 -0.000000 -0.000000 -0.000000 -0.000000 -0.000000 -0.000000 -0.000000 -0.000000 -0.000000 -0.000000 -0.000000 -0.000000 -0.000000 -0.000000 -0.000000 -0.000000 -0.000000 -0.000000 -0.000000 -0.000000 -0.000000 -0.000000 -0.000000 -0.000000 -0.000000 -0.000000 -0.000000 -0.000000 -0.000000 -0.000000 -0.000000 -0.000000 -0.000000 -0.000000 -0.000000 -0.000000 -0.000000 -0.000000 -0.000000 -0.000000 -0.000000 -0.000000 -0.000000 -0.000000 -0.000000 -0.000000 -0.000000 -0.000000 -0.000000 -0.000000 -0.000000 -0.000000 -0.000000 -0.000000 -0.000000 -0.000000 -0.000000 -0.000000 -0.000000 -0.000000 -0.000000 -0.000000 -0.000000 -0.000000 -0.000000 -0.000000 -0.000000 -0.000000 -0.000000 -0.000000 -0.000000 -0.000000 -0.000000 -0.000000 -0.000000 -0.000000 -0.000000 -0.000000 -0.000000 -0.000000 -0.000000 -0.000000 -0.000000 -0.000000 -0.000000 -0.000000 -0.000000 -0.000000 -0.000000 -0.000000 -0.000000 -0.000000 -0.000000 -0.000000 -0.000000 -0.000000 -0.000000 -0.000000 -0.000000 -0.000000 -0.000000 -0.000000 -0.000000 -0.000000 -0.000000 -0.000000 -0.000000 -0.000000 -0.000000 -0.000000 -0.000000 -0.000000 -0.000000 -0.000000 -0.000000 -0.000000 -0.000000 -0.000000 -0.000000 -0.000000 -0.000000 -0.000000 -0.000000 -0.000000 -0.000000 -0.000000 -0.000000 -0.000000 -0.000000 -0.000000 -0.000000 -0.000000 -0.000000 -0.000000 -0.000000 -0.000000 -0.000000 -0.000000 -0.000000 -0.000000 -0.000000 -0.000000 -0.000000 -0.000000 -0.000000 -0.000000 -0.000000 -0.000000 -0.000000 -0.000000 -0.000000 -0.000000 -0.000000 -0.000000 -0.000000 -0.000000 -0.000000 -0.000000 -0.000000 -0.000000 -0.000000 -0.000000 -0.000000 -0.000000 -0.000000 -0.000000 -0.000000 -0.000000 -0.000000 -0.000000 -0.000000 -0.000000 -0.000000 -0.000000 -0.000000 -0.000000 -0.000000 -0.000000 -0.000000 -0.000000 -0.000000 -0.000000 -0.000000 -0.000000 -0.000000 -0.000000 -0.000000 -0.000000 -0.000000 -0.000000 -0.000000 -0.000000 -0.000000 -0.000000 -0.000000 -0.000000 -0.000000 -0.000000 -0.000000 -0.000000 -0.000000 -0.000000 -0.000000 -0.000000 -0.000000 -0.000000 -0.000000 -0.000000 -0.000000 -0.000000 -0.000000 -0.000000 -0.000000 -0.000000 -0.000000 -0.000000 -0.000000 -0.000000 -0.000000 -0.000000 -0.000000 -0.000000 -0.000000 -0.000000 -0.000000 -0.000000 -0.000000 -0.000000 -0.000000 -0.000000 -0.000000 -0.000000 -0.000000 -0.000000 -0.000000 -0.000000 -0.000000 -0.000000 -0.000000 -0.000000 -0.000000 -0.000000 -0.000000 -0.000000 -0.000000 -0.000000 -0.000000 -0.000000 -0.000000 -0.000000 -0.000000 -0.000000 -0.000000 -0.000000 -0.000000 -0.000000 -0.000000 -0.000000 -0.000000 -0.000000 -0.000000 -0.000000 -0.000000 -0.000000 -0.000000 -0.000000 -0.000000 -0.000000 -0.000000 -0.000000 -0.000000 -0.000000 -0.000000 -0.000000 -0.000000 -0.000001 -0.000001 -0.000001 -0.000001 -0.000001 -0.000001 -0.000001 -0.000001 -0.000001 -0.000001 -0.000001 -0.000001 -0.000001 -0.000001 -0.000001 -0.000001 -0.000001 -0.000001 -0.000002 -0.000002 -0.000002 -0.000002 -0.000002 -0.000002 -0.000002 -0.000002 -0.000002 -0.000002 -0.000002 -0.000002 -0.000003 -0.000003 -0.000003 -0.000003 -0.000003 -0.000003 -0.000003 -0.000003 -0.000003 -0.000003 -0.000003 -0.000003 -0.000004 -0.000004 -0.000004 -0.000004 -0.000004 -0.000004 -0.000005 -0.000005 -0.000005 -0.000005 -0.000005 -0.000005 -0.000006 -0.000006 -0.000006 -0.000006 -0.000006 -0.000006 -0.000007 -0.000007 -0.000007 -0.000007 -0.000007 -0.000006 -0.000008 -0.000008 -0.000008 -0.000008 -0.000007 -0.000004 -0.000009 -0.000009 -0.000009 -0.000009 -0.000007 0.000000 0.000015 0.000042 0.000084 0.000150 0.000253 0.000411 0.000647 0.000996 0.001502 0.002231 0.003268 0.004732 0.006781 0.009628 0.013562 0.018970 0.026388 0.036566 0.050599 0.070162 0.097960 0.138570 0.200026 0.296726 0.454657 0.720558 1.177665 1.972307 3.358300 5.770602 9.947432 17.134044 29.429735 50.395375 86.121221 147.482621 260.369019 501.590628 959.570959 -463.487184 -931.606132 -295.022263 -22.488812 307.469001 823.169957 1849.530099 3981.821365 5334.347500 1070.936871 427.197352 -6843.287640 -3192.826161 893.506131 -2420.561804 -1973.486010 6443.924793 6340.232260 2231.257351 3332.446004 3150.008805 3031.257065 2680.254851 11869.772168 -1803.306379 7973.665750 11882.967266 9375.556703 10236.931507 11124.994753 6771.957271 14188.139958 17350.645029 20169.412112 16752.340031 17153.932857 16251.240920 16696.461072 15082.314813 16863.044122 16304.084351 15524.585642 16788.279705 17908.362982 19091.963541 18423.423245 23551.006943 23228.382451 22551.363852 23763.012407 23254.618137 24778.723982 24884.877147 25432.367772 23439.744778 24402.736179 25366.308200 23154.861900 21639.023950 18914.920733 19948.429908 24875.452826 22788.608895 21730.332438 21730.332438 21730.332438 -0.000010 -0.000010 -0.000010 -0.000010 -0.000007 0.000003 0.000018 0.000044 0.000087 0.000155 0.000261 0.000423 0.000664 0.001019 0.001534 0.002276 0.003330 0.004817 0.006897 0.009786 0.013776 0.019262 0.026788 0.037122 0.051392 0.071337 0.099775 0.141505 0.204964 0.305275 0.469685 0.747052 1.224026 2.052067 3.491691 5.983429 10.258658 17.506538 29.614250 49.490767 81.429362 131.427122 208.489548 328.890317 403.133032 229.861920 -7.110041 -8.214814 146.146727 380.965052 754.906760 1412.030979 2450.139226 3280.914107 3130.234330 2846.839124 304.602638 316.808273 785.440820 1002.806209 1775.464906 4300.664858 4452.343670 3773.551857 3929.841007 4215.890348 4956.151971 5301.034738 7061.303425 5152.146601 6807.421216 8013.620797 8381.666963 8867.944712 9419.994372 9871.898159 11635.697402 13533.621194 14061.003369 13771.829233 14468.825505 14649.955192 14857.924472 14484.201510 15121.171962 15461.993333 15503.615432 16229.258664 16754.870814 17551.591490 17849.388688 20531.269092 20534.574976 20062.911307 20523.764484 20570.359502 21989.544393 22995.752414 23271.409746 22462.106097 22640.615874 23154.132417 22330.377058 20571.606957 18411.884719 19534.202202 22765.695178 21851.586045 21380.500390 21380.500390 21380.500390 -0.000010 -0.000010 -0.000010 -0.000010 -0.000007 0.000004 0.000020 0.000047 0.000091 0.000162 0.000270 0.000436 0.000683 0.001045 0.001572 0.002328 0.003402 0.004916 0.007032 0.009969 0.014025 0.019601 0.027253 0.037771 0.052322 0.072718 0.101922 0.144992 0.210851 0.315484 0.487639 0.778697 1.279384 2.147362 3.651531 6.240579 10.642936 17.997835 29.992212 48.916652 77.414585 117.446360 167.888995 219.386639 247.874364 229.415880 196.670835 210.181981 291.101501 447.158168 697.520915 1071.843718 1572.271728 2098.937496 2501.574160 2682.456584 2554.333003 2442.328459 2479.979582 2665.022067 3065.475867 3583.346671 3920.451754 4126.288863 4404.423317 4759.943556 5166.026465 5589.862210 5951.674954 6218.959142 6759.271938 7308.210680 7823.613013 8379.401707 9022.678307 9775.524453 10513.779800 11118.277785 11582.188769 12009.867965 12466.414269 12844.485656 13174.402364 13525.947997 13930.173787 14298.118784 14670.958917 15140.018418 15694.764893 16297.334983 16939.659985 17654.405553 18179.156933 18626.137228 19131.907739 19620.687998 20271.628802 20919.554687 21393.239151 21764.292743 22133.380603 22447.066445 22409.350938 22128.352760 21788.223749 21704.900731 21666.902975 21278.594220 21185.218500 21185.218500 21185.218500 -0.000010 -0.000010 -0.000010 -0.000010 -0.000007 0.000004 0.000021 0.000048 0.000092 0.000163 0.000272 0.000438 0.000686 0.001050 0.001579 0.002337 0.003415 0.004934 0.007056 0.010002 0.014070 0.019662 0.027337 0.037888 0.052491 0.072970 0.102314 0.145631 0.211931 0.317360 0.490938 0.784511 1.289551 2.164869 3.680941 6.288103 10.714765 18.092689 30.077291 48.861226 76.831366 115.369098 162.210498 207.656520 234.459002 232.820627 221.933345 239.567838 312.828778 457.426679 689.319350 1024.333695 1456.960859 1928.609223 2344.792470 2611.970927 2680.867200 2682.039186 2743.131533 2925.421947 3235.260173 3597.969549 3901.028594 4162.425580 4459.483580 4804.765297 5180.382944 5560.753730 5922.651093 6288.402829 6754.172178 7250.781241 7762.360148 8331.513779 8978.708390 9666.720588 10298.920846 10833.436207 11299.507518 11757.736655 12210.155393 12607.363564 12971.787362 13349.077395 13746.307659 14130.219502 14525.424714 14986.420108 15522.369302 16112.451141 16736.105404 17367.996969 17931.323698 18459.237939 18991.207017 19533.083626 20119.536409 20701.468045 21215.690686 21665.859106 22080.343160 22378.365174 22455.142140 22343.950295 22141.890241 21892.345760 21529.438107 21218.368849 21157.044065 21157.044065 21157.044065 -0.000010 -0.000010 -0.000010 -0.000010 -0.000007 0.000004 0.000021 0.000048 0.000092 0.000163 0.000272 0.000438 0.000686 0.001050 0.001579 0.002337 0.003415 0.004934 0.007056 0.010002 0.014070 0.019662 0.027337 0.037888 0.052491 0.072970 0.102314 0.145631 0.211931 0.317360 0.490938 0.784511 1.289551 2.164869 3.680941 6.288103 10.714765 18.092689 30.077291 48.861226 76.831366 115.369098 162.210498 207.656520 234.459002 232.820627 221.933345 239.567838 312.828778 457.426679 689.319350 1024.333695 1456.960859 1928.609223 2344.792470 2611.970927 2680.867200 2682.039186 2743.131533 2925.421947 3235.260173 3597.969549 3901.028594 4162.425580 4459.483580 4804.765297 5180.382944 5560.753730 5922.651093 6288.402829 6754.172178 7250.781241 7762.360148 8331.513779 8978.708390 9666.720588 10298.920846 10833.436207 11299.507518 11757.736655 12210.155393 12607.363564 12971.787362 13349.077395 13746.307659 14130.219502 14525.424714 14986.420108 15522.369302 16112.451141 16736.105404 17367.996969 17931.323698 18459.237939 18991.207017 19533.083626 20119.536409 20701.468045 21215.690686 21665.859106 22080.343160 22378.365174 22455.142140 22343.950295 22141.890241 21892.345760 21529.438107 21218.368849 21157.044065 21157.044065 21157.044065 -0.000010 -0.000010 -0.000010 -0.000010 -0.000007 0.000004 0.000021 0.000048 0.000092 0.000163 0.000272 0.000438 0.000686 0.001050 0.001579 0.002337 0.003415 0.004934 0.007056 0.010002 0.014070 0.019662 0.027337 0.037888 0.052491 0.072970 0.102314 0.145631 0.211931 0.317360 0.490938 0.784511 1.289551 2.164869 3.680941 6.288103 10.714765 18.092689 30.077291 48.861226 76.831366 115.369098 162.210498 207.656520 234.459002 232.820627 221.933345 239.567838 312.828778 457.426679 689.319350 1024.333695 1456.960859 1928.609223 2344.792470 2611.970927 2680.867200 2682.039186 2743.131533 2925.421947 3235.260173 3597.969549 3901.028594 4162.425580 4459.483580 4804.765297 5180.382944 5560.753730 5922.651093 6288.402829 6754.172178 7250.781241 7762.360148 8331.513779 8978.708390 9666.720588 10298.920846 10833.436207 11299.507518 11757.736655 12210.155393 12607.363564 12971.787362 13349.077395 13746.307659 14130.219502 14525.424714 14986.420108 15522.369302 16112.451141 16736.105404 17367.996969 17931.323698 18459.237939 18991.207017 19533.083626 20119.536409 20701.468045 21215.690686 21665.859106 22080.343160 22378.365174 22455.142140 22343.950295 22141.890241 21892.345760 21529.438107 21218.368849 21157.044065 21157.044065 21157.044065 -1380.989346 -1469.903370 -1601.810177 -1805.231518 -2170.780430 -2553.204519 -1257.152096 -59.064561 -829.813361 -1542.051065 -182.930448 1070.691734 401.201068 -199.148100 -571.527947 -200.074431 1072.512690 2579.833385 2377.535361 -2145.247629 -2416.633244 2807.437323 2536.072454 1190.562217 -35.814774 -535.116101 3394.742040 393.610926 2473.168097 3150.269409 2692.724517 4268.390785 3840.872062 6455.685870 6887.590128 8526.656138 8408.699310 7072.159114 8013.408859 9088.515914 8589.016084 9295.029480 9199.949679 10855.826834 12403.180764 12663.808352 12486.156503 12560.113421 12655.726046 13090.196246 13247.159038 12781.726400 12565.127912 12548.422796 12548.422796 12548.422796 -1234.876569 -558.887375 1721.144798 13527.599037 15000.051887 12393.877672 15272.974294 13604.740812 15131.030118 15651.724200 15436.353682 15103.668820 13689.729813 15097.055818 12250.470017 13374.198238 13856.165420 13178.172882 15723.463777 14270.888101 14500.258041 14929.253022 12468.301487 12380.103501 11530.683684 12111.222296 14376.906451 12139.820536 10419.624305 15130.300913 11546.857500 14466.914277 11948.961354 13215.463340 14131.569502 12521.711809 15071.926733 14636.694959 15424.525441 13249.225037 12804.616711 15771.841249 13274.024809 13964.986849 14328.151857 14598.123856 12121.254050 13522.727643 11258.660757 13382.274706 14890.812804 13430.965607 12907.295488 12838.587491 12838.587491 12838.587491 -401.030153 -1778.027031 12689.869481 5545.571417 16738.731583 14972.081504 16110.714123 14942.512028 15148.799154 15114.231352 14848.611620 12575.333970 14518.346186 14265.874738 13099.420225 12518.804620 11935.877367 13355.683975 14090.740541 14536.002469 13604.507871 11122.547681 11225.978896 12293.718582 13108.187543 10598.797171 14282.390428 12292.265615 11990.016749 10777.634182 10422.451542 10244.082415 12643.959649 12788.273081 13497.945306 10555.511099 10667.384190 9432.575984 8823.927713 12867.056799 10582.554065 11152.179915 7904.709756 13544.642376 9358.797099 10665.700003 12308.198939 13241.824385 9327.985867 15201.227559 14473.736229 12913.533383 13247.119622 13296.568495 13296.568495 13296.568495 -1353.145287 5648.188002 15360.229496 13717.074216 14969.488129 12562.275450 14555.723007 14606.496500 15777.249539 14205.297415 15589.559995 14137.273225 14196.539798 11133.767658 15500.942479 13416.643068 13791.681683 12290.848906 14492.512106 14846.751518 15283.364671 13189.463187 9935.027643 15141.315537 14175.759062 10537.822769 14524.948228 13031.4