<VTKFile type="PolyData">
<PolyData>
<Piece NumberOfPoints="8632" NumberOfVerts="8632" NumberOfLines="0" NumberOfStrips="0" NumberOfPolys="0">
<PointData>
<DataArray type="Float64" Name="Pressure" format="ascii">
 -2.958147 -2.958147 -2.958147 -2.999155 -3.459636 -4.652141 -6.013634 -7.581966 -9.358427 -11.354387 -13.594520 -16.111857 -18.944680 -22.135171 -25.728966 -29.775049 -34.325781 -39.436963 -45.167885 -51.581348 -58.743656 -66.724558 -75.597142 -85.437682 -96.325414 -108.342266 -121.572504 -136.102319 -152.019323 -169.411980 -188.368938 -208.978285 -231.326718 -255.498636 -281.575168 -309.633149 -339.744081 -371.973097 -406.377992 -443.008338 -481.904755 -523.098345 -566.610311 -612.451709 -660.623235 -711.114807 -763.904575 -818.956706 -876.216775 -935.602593 -996.985927 -1060.155001 -1124.734710 -1190.018139 -1254.639581 -1316.359253 -1372.548724 -1420.217668 -1454.112964 -1463.895241 -1432.025251 -1333.848221 -1161.395391 -972.362079 -830.481767 -704.237860 -543.817056 -390.399061 -316.672440 -305.299632 -289.526927 -216.168159 -105.400055 -49.691274 -69.177215 -98.719689 -56.756703 128.275969 460.359935 835.847687 1185.533335 1487.774799 1679.783676 1789.213189 1939.922372 2243.550338 2736.546596 3367.538001 4058.563456 4767.124030 5482.790692 6203.247077 6912.465723 7587.577230 8230.102982 8869.598092 9524.840152 10176.606368 10787.702837 11333.367042 11801.726538 12178.042696 12456.283481 12645.256481 12766.081292 12859.184382 12961.171917 13044.120794 13061.484142 13061.484142 13061.484142 -2.958147 -2.958147 -2.958147 -2.999155 -3.459636 -4.652141 -6.013634 -7.581966 -9.358427 -11.354387 -13.594520 -16.111857 -18.944680 -22.135171 -25.728966 -29.775049 -34.325781 -39.436963 -45.167885 -51.581348 -58.743656 -66.724558 -75.597142 -85.437682 -96.325414 -108.342266 -121.572504 -136.102319 -152.019323 -169.411980 -188.368938 -208.978285 -231.326718 -255.498636 -281.575168 -309.633149 -339.744081 -371.973097 -406.377992 -443.008338 -481.904755 -523.098345 -566.610311 -612.451709 -660.623235 -711.114807 -763.904575 -818.956706 -876.216775 -935.602593 -996.985927 -1060.155001 -1124.734710 -1190.018139 -1254.639581 -1316.359253 -1372.548724 -1420.217668 -1454.112964 -1463.895241 -1432.025251 -1333.848221 -1161.395391 -972.362079 -830.481767 -704.237860 -543.817056 -390.399061 -316.672440 -305.299632 -289.526927 -216.168159 -105.400055 -49.691274 -69.177215 -98.719689 -56.756703 128.275969 460.359935 835.847687 1185.533335 1487.774799 1679.783676 1789.213189 1939.922372 2243.550338 2736.546596 3367.538001 4058.563456 4767.124030 5482.790692 6203.247077 6912.465723 7587.577230 8230.102982 8869.598092 9524.840152 10176.606368 10787.702837 11333.367042 11801.726538 12178.042696 12456.283481 12645.256481 12766.081292 12859.184382 12961.171917 13044.120794 13061.484142 13061.484142 13061.484142 -2.958147 -2.958147 -2.958147 -2.999155 -3.459636 -4.652141 -6.013634 -7.581966 -9.358427 -11.354387 -13.594520 -16.111857 -18.944680 -22.135171 -25.728966 -29.775049 -34.325781 -39.436963 -45.167885 -51.581348 -58.743656 -66.724558 -75.597142 -85.437682 -96.325414 -108.342266 -121.572504 -136.102319 -152.019323 -169.411980 -188.368938 -208.978285 -231.326718 -255.498636 -281.575168 -309.633149 -339.744081 -371.973097 -406.377992 -443.008338 -481.904755 -523.098345 -566.610311 -612.451709 -660.623235 -711.114807 -763.904575 -818.956706 -876.216775 -935.602593 -996.985927 -1060.155001 -1124.734710 -1190.018139 -1254.639581 -1316.359253 -1372.548724 -1420.217668 -1454.112964 -1463.895241 -1432.025251 -1333.848221 -1161.395391 -972.362079 -830.481767 -704.237860 -543.817056 -390.399061 -316.672440 -305.299632 -289.526927 -216.168159 -105.400055 -49.691274 -69.177215 -98.719689 -56.756703 128.275969 460.359935 835.847687 1185.533335 1487.774799 1679.783676 1789.213189 1939.922372 2243.550338 2736.546596 3367.538001 4058.563456 4767.124030 5482.790692 6203.247077 6912.465723 7587.577230 8230.102982 8869.598092 9524.840152 10176.606368 10787.702837 11333.367042 11801.726538 12178.042696 12456.283481 12645.256481 12766.081292 12859.184382 12961.171917 13044.120794 13061.484142 13061.484142 13061.484142 -2.943286 -2.943286 -2.943286 -2.983488 -3.440441 -4.624711 -5.988995 -7.566598 -9.349812 -11.348688 -13.589717 -16.107058 -18.939497 -22.129428 -25.722563 -29.767918 -34.317865 -39.428210 -45.158242 -51.570766 -58.732085 -66.711949 -75.583450 -85.422863 -96.309430 -108.325081 -121.554090 -136.082652 -151.998391 -169.389777 -188.345470 -208.953567 -231.300781 -255.471523 -281.546936 -309.603870 -339.713841 -371.941998 -406.346146 -442.975870 -481.871797 -523.065039 -566.576805 -612.418172 -660.589874 -711.081933 -763.872759 -818.927153 -876.192249 -935.589695 -997.000696 -1060.236462 -1124.975465 -1190.621076 -1255.877285 -1318.372626 -1375.385135 -1424.690623 -1462.014042 -1478.262795 -1457.358084 -1365.464778 -1152.160162 -952.015436 -829.332373 -720.950005 -545.070204 -358.703477 -295.646273 -305.921362 -308.813740 -234.496886 -78.381904 -23.004680 -65.167749 -125.010992 -112.577914 64.484638 431.486929 826.240713 1181.783072 1524.408958 1717.853576 1785.846517 1891.217456 2167.647534 2667.344420 3317.634028 4014.642761 4725.453566 5448.499705 6186.162564 6912.759433 7588.367228 8213.714009 8834.122609 9484.159631 10141.856888 10759.485319 11308.815339 11785.782832 12167.991860 12447.196697 12636.677100 12755.190183 12847.351033 12955.869941 13045.520761 13064.281336 13064.281336 13064.281336 -2.782217 -2.782217 -2.782217 -2.813955 -3.206996 -4.259911 -5.671448 -7.403550 -9.263117 -11.292174 -13.541978 -16.059204 -18.887757 -22.072050 -25.658579 -29.696654 -34.238756 -39.340729 -45.061875 -51.465006 -58.616436 -66.585930 -75.446600 -85.274750 -96.149660 -108.153308 -121.370024 -135.886072 -151.789154 -169.167832 -188.110869 -208.706478 -231.041497 -255.200474 -281.264694 -309.311157 -339.411522 -371.631079 -406.027759 -442.651256 -481.542288 -522.732040 -566.241811 -612.082842 -660.256269 -710.753120 -763.554311 -818.630810 -875.944901 -935.455536 -997.136018 -1061.024616 -1127.352433 -1196.756054 -1270.569691 -1342.744965 -1406.935859 -1473.214401 -1547.839717 -1637.349985 -1744.246807 -1753.917886 -1028.991034 -496.846025 -772.840898 -1040.674813 -578.584551 150.108349 -4.892278 -315.765020 -612.404338 -556.663329 299.072251 419.521518 -14.277904 -429.643395 -798.935857 -897.317410 169.817227 870.923189 924.619653 2056.150433 2325.226283 1804.145113 1307.552879 1216.997088 1842.529303 2792.889551 3529.048163 4210.126158 5006.093873 5979.604660 6960.289779 7643.062206 8023.809478 8375.962268 8954.139883 9705.244251 10412.480182 10994.692037 11590.879788 12061.999927 12334.996191 12534.282747 12632.718813 12717.612114 12914.978577 13074.755851 13102.106715 13102.106715 13102.106715 -2.553385 -2.553385 -2.553385 -2.578081 -2.862372 -3.615000 -4.977766 -7.120926 -9.139212 -11.219126 -13.484463 -16.003597 -18.828517 -22.006709 -25.585850 -29.615698 -34.148902 -39.241365 -44.952413 -51.344868 -58.485056 -66.442759 -75.291112 -85.106453 -95.968105 -107.958100 -121.160831 -135.662641 -151.551321 -168.915537 -187.844169 -208.425562 -230.746696 -254.892275 -280.943750 -308.978284 -339.067707 -371.277468 -405.665643 -442.282053 -481.167520 -522.353323 -565.860883 -611.701675 -659.877416 -710.380602 -763.195817 -818.303108 -875.687197 -935.362604 -997.440970 -1062.308296 -1131.088697 -1206.895074 -1298.441136 -1379.876562 -1445.532986 -1529.891076 -1648.330190 -1826.475542 -2130.352564 -2508.337685 -1350.916191 -38.796022 -687.073788 -1585.366051 -711.616272 861.176810 424.585401 -326.581709 -1081.991448 -1100.323301 755.178704 1072.164528 65.429802 -805.908348 -1853.512013 -2883.299152 -156.470854 767.709335 -1241.444862 3872.563081 4125.643479 1903.690666 576.425660 -660.100619 362.165919 2770.363483 2958.557300 3282.883962 4148.568237 5466.628441 7212.354979 7622.346039 7808.633677 7541.433532 7955.556332 9037.504199 10022.989992 10312.919937 11373.981850 12117.611339 12398.395700 12502.929031 12965.358196 13051.748228 13187.548280 13152.335209 13173.310344 13173.310344 13173.310344 -2.521040 -2.521040 -2.521040 -2.544744 -2.815153 -3.513139 -2.296946 -2.296946 -2.296946 -2.312424 -2.488216 -2.871940 -1.950212 -1.950212 -1.950212 -1.957079 -2.030161 -2.154199 -1.638112 -1.638112 -1.638112 -1.640705 -1.666346 -1.708772 -1.367170 -1.367170 -1.367170 -1.367882 -1.374689 -1.387248 -1.135958 -1.135958 -1.135958 -1.135956 -1.135786 -1.137444 -0.940549 -0.940549 -0.940549 -0.940306 -0.937823 -0.935728 -0.776380 -0.776380 -0.776380 -0.776080 -0.773061 -0.769920 -0.639043 -0.639043 -0.639043 -0.638752 -0.635841 -0.632653 -0.524552 -0.524552 -0.524552 -0.524293 -0.521696 -0.518799 -0.429404 -0.429404 -0.429404 -0.429180 -0.426941 -0.424422 -0.350565 -0.350565 -0.350565 -0.350374 -0.348474 -0.346329 -0.285427 -0.285427 -0.285427 -0.285267 -0.283668 -0.281861 -0.231764 -0.231764 -0.231764 -0.231630 -0.230293 -0.228780 -0.187680 -0.187680 -0.187680 -0.187568 -0.186454 -0.185195 -0.151567 -0.151567 -0.151567 -0.151475 -0.150551 -0.149505 -0.122070 -0.122070 -0.122070 -0.121994 -0.121229 -0.120365 -0.098045 -0.098045 -0.098045 -0.097981 -0.097351 -0.096638 -0.078532 -0.078532 -0.078532 -0.078480 -0.077962 -0.077376 -0.062730 -0.062730 -0.062730 -0.062687 -0.062263 -0.061783 -0.049969 -0.049969 -0.049969 -0.049934 -0.049588 -0.049196 -0.039695 -0.039695 -0.039695 -0.039666 -0.039384 -0.039065 -0.031445 -0.031445 -0.031445 -0.031422 -0.031193 -0.030934 -0.024841 -0.024841 -0.024841 -0.024823 -0.024637 -0.024427 -0.019570 -0.019570 -0.019570 -0.019555 -0.019405 -0.019236 -0.015374 -0.015374 -0.015374 -0.015362 -0.015241 -0.015105 -0.012044 -0.012044 -0.012044 -0.012034 -0.011938 -0.011829 -0.009409 -0.009409 -0.009409 -0.009401 -0.009324 -0.009237 -0.007330 -0.007330 -0.007330 -0.007324 -0.007262 -0.007193 -0.005694 -0.005694 -0.005694 -0.005689 -0.005640 -0.005585 -0.004411 -0.004411 -0.004411 -0.004407 -0.004368 -0.004325 -0.003408 -0.003408 -0.003408 -0.003405 -0.003374 -0.003339 -0.002625 -0.002625 -0.002625 -0.002623 -0.002598 -0.002571 -0.002016 -0.002016 -0.002016 -0.002014 -0.001996 -0.001974 -0.001545 -0.001545 -0.001545 -0.001543 -0.001528 -0.001511 -0.001180 -0.001180 -0.001180 -0.001179 -0.001167 -0.001154 -0.000899 -0.000899 -0.000899 -0.000898 -0.000889 -0.000878 -0.000682 -0.000682 -0.000682 -0.000682 -0.000675 -0.000667 -0.000517 -0.000517 -0.000517 -0.000516 -0.000511 -0.000505 -0.000390 -0.000390 -0.000390 -0.000390 -0.000386 -0.000381 -0.000294 -0.000294 -0.000294 -0.000294 -0.000290 -0.000287 -0.000221 -0.000221 -0.000221 -0.000221 -0.000218 -0.000215 -0.000165 -0.000165 -0.000165 -0.000165 -0.000163 -0.000161 -0.000123 -0.000123 -0.000123 -0.000123 -0.000122 -0.000120 -0.000092 -0.000092 -0.000092 -0.000092 -0.000091 -0.000089 -0.000068 -0.000068 -0.000068 -0.000068 -0.000067 -0.000066 -0.000051 -0.000051 -0.000051 -0.000050 -0.000050 -0.000049 -0.000037 -0.000037 -0.000037 -0.000037 -0.000037 -0.000036 -0.000027 -0.000027 -0.000027 -0.000027 -0.000027 -0.000027 -0.000020 -0.000020 -0.000020 -0.000020 -0.000020 -0.000020 -0.000015 -0.000015 -0.000015 -0.000015 -0.000015 -0.000014 -0.000011 -0.000011 -0.000011 -0.000011 -0.000011 -0.000010 -0.000008 -0.000008 -0.000008 -0.000008 -0.000008 -0.000008 -0.000006 -0.000006 -0.000006 -0.000006 -0.000006 -0.000006 -0.000004 -0.000004 -0.000004 -0.000004 -0.000004 -0.000004 -0.000003 -0.000003 -0.000003 -0.000003 -0.000003 -0.000003 -0.000002 -0.000002 -0.000002 -0.000002 -0.000002 -0.000002 -0.000002 -0.000002 -0.000002 -0.000002 -0.000002 -0.000001 -0.000001 -0.000001 -0.000001 -0.000001 -0.000001 -0.000001 -0.000001 -0.000001 -0.000001 -0.000001 -0.000001 -0.000001 -0.000001 -0.000001 -0.000001 -0.000001 -0.000001 -0.000001 -0.000000 -0.000000 -0.000000 -0.000000 -0.000000 -0.000000 -0.000000 -0.000000 -0.000000 -0.000000 -0.000000 -0.000000 -0.000000 -0.000000 -0.000000 -0.000000 -0.000000 -0.000000 -0.000000 -0.000000 -0.000000 -0.000000 -0.000000 -0.000000 -0.000000 -0.000000 -0.000000 -0.000000 -0.000000 -0.000000 -0.000000 -0.000000 -0.000000 -0.000000 -0.000000 -0.000000 -0.000000 -0.000000 -0.000000 -0.000000 -0.000000 -0.000000 -0.000000 -0.000000 -0.000000 -0.000000 -0.000000 -0.000000 -0.000000 -0.000000 -0.000000 -0.000000 -0.000000 -0.000000 -0.000000 -0.000000 -0.000000 -0.000000 -0.000000 -0.000000 -0.000000 -0.000000 -0.000000 -0.000000 -0.000000 -0.000000 -0.000000 -0.000000 -0.000000 -0.000000 -0.000000 -0.000000 -0.000000 -0.000000 -0.000000 -0.000000 -0.000000 -0.000000 -0.000000 -0.000000 -0.000000 -0.000000 -0.000000 -0.000000 -0.000000 -0.000000 -0.000000 -0.000000 -0.000000 -0.000000 -0.000000 -0.000000 -0.000000 -0.000000 -0.000000 -0.000000 -0.000000 -0.000000 -0.000000 -0.000000 -0.000000 -0.000000 -0.000000 -0.000000 -0.000000 -0.000000 -0.000000 -0.000000 -0.000000 -0.000000 -0.000000 -0.000000 -0.000000 -0.000000 -0.000000 -0.000000 -0.000000 -0.000000 -0.000000 -0.000000 -0.000000 -0.000000 -0.000000 -0.000000 -0.000000 -0.000000 -0.000000 -0.000000 -0.000000 -0.000000 -0.000000 -0.000000 -0.000000 -0.000000 -0.000000 -0.000000 -0.000000 -0.000000 -0.000000 -0.000000 -0.000000 -0.000000 -0.000000 -0.000000 -0.000000 -0.000000 -0.000000 -0.000000 -0.000000 -0.000000 -0.000000 -0.000000 -0.000000 -0.000000 -0.000000 -0.000000 -0.000000 -0.000000 -0.000000 -0.000000 -0.000000 -0.000000 -0.000000 -0.000000 -0.000000 -0.000000 -0.000000 -0.000000 -0.000000 -0.000000 -0.000000 -0.000000 -0.000000 -0.000000 -0.000000 -0.000000 -0.000000 -0.000000 -0.000000 -0.000000 -0.000000 -0.000000 -0.000000 -0.000000 -0.000000 -0.000000 -0.000000 -0.000000 -0.000000 -0.000000 -0.000000 -0.000000 -0.000000 -0.000000 -0.000000 -0.000000 -0.000000 -0.000000 -0.000000 -0.000000 -0.000000 -0.000000 -0.000000 -0.000000 -0.000000 -0.000000 -0.000000 -0.000000 -0.000000 -0.000000 -0.000000 -0.000000 -0.000000 -0.000000 -0.000000 -0.000000 -0.000000 -0.000000 -0.000000 -0.000000 -0.000000 -0.000000 -0.000000 -0.000000 -0.000000 -0.000000 -0.000000 -0.000000 -0.000000 -0.000000 -0.000000 -0.000000 -0.000000 -0.000000 -0.000000 -0.000000 -0.000000 -0.000000 -0.000000 -0.000000 -0.000000 -0.000000 -0.000000 -0.000000 -0.000000 -0.000000 -0.000000 -0.000000 -0.000000 -0.000000 -0.000000 -0.000000 -0.000000 -0.000000 -0.000000 -0.000000 -0.000000 -0.000000 -0.000000 -0.000000 -0.000000 -0.000000 -0.000000 -0.000000 -0.000000 -0.000000 -0.000000 -0.000000 -0.000000 -0.000000 -0.000000 -0.000000 -0.000000 -0.000000 -0.000000 -0.000000 -0.000000 -0.000000 -0.000000 -0.000000 -0.000000 -0.000000 -0.000000 -0.000000 -0.000000 -0.000000 -0.000000 -0.000000 -0.000000 -0.000000 -0.000000 -0.000000 -0.000000 -0.000000 -0.000000 -0.000000 -0.000000 -0.000000 -0.000000 -0.000000 -0.000000 -0.000000 -0.000000 -0.000000 -0.000000 -0.000000 -0.000000 -0.000000 -0.000000 -0.000000 -0.000000 -0.000000 -0.000000 -0.000000 -0.000000 -0.000000 -0.000000 -0.000000 -0.000000 -0.000000 -0.000000 -0.000000 -0.000000 -0.000000 -0.000000 -0.000000 -0.000000 -0.000000 -0.000000 -0.000000 -0.000000 -0.000000 -0.000000 -0.000000 -0.000000 -0.000000 -0.000000 -0.000000 -0.000000 -0.000000 -0.000000 -0.000000 -0.000000 -0.000000 -0.000000 -0.000000 -0.000000 -0.000000 -0.000000 -0.000000 -0.000000 -0.000000 -0.000000 -0.000000 -0.000000 -0.000000 -0.000000 -0.000000 -0.000000 -0.000000 -0.000000 -0.000000 -0.000000 -0.000000 -0.000000 -0.000000 -0.000000 -0.000000 -0.000000 -0.000000 -0.000000 -0.000000 -0.000000 -0.000000 -0.000000 -0.000000 -0.000000 -0.000000 -0.000000 -0.000000 -0.000000 -0.000000 -0.000000 -0.000000 -0.000000 -0.000000 -0.000000 -0.000000 -0.000000 -0.000000 -0.000000 -0.000000 -0.000000 -0.000000 -0.000000 -0.000000 -0.000000 -0.000000 -0.000000 -0.000000 -0.000000 -0.000000 -0.000000 -0.000000 -0.000000 -0.000000 -0.000000 -0.000000 -0.000000 -0.000000 -0.000000 -0.000000 -0.000000 -0.000000 -0.000000 -0.000000 -0.000000 -0.000000 -0.000000 -0.000000 -0.000000 -0.000000 -0.000000 -0.000000 -0.000000 -0.000000 -0.000000 -0.000000 -0.000000 -0.000000 -0.000000 -0.000000 -0.000000 -0.000000 -0.000000 -0.000000 -0.000000 -0.000000 -0.000000 -0.000000 -0.000000 -0.000000 -0.000000 -0.000000 -0.000000 -0.000000 -0.000000 -0.000000 -0.000000 -0.000000 -0.000000 -0.000000 -0.000000 -0.000000 -0.000000 -0.000000 -0.000000 -0.000000 -0.000000 -0.000000 -0.000000 -0.000000 -0.000000 -0.000000 -0.000000 -0.000000 -0.000000 -0.000000 -0.000000 -0.000000 -0.000000 -0.000000 -0.000000 -0.000000 -0.000000 -0.000000 -0.000000 -0.000000 -0.000000 -0.000000 -0.000000 -0.000000 -0.000000 -0.000000 -0.000000 -0.000000 -0.000000 -0.000000 -0.000000 -0.000000 -0.000000 -0.000000 -0.000000 -0.000000 -0.000000 -0.000000 -0.000000 -0.000000 -0.000000 -0.000000 -0.000000 -0.000000 -0.000000 -0.000000 -0.000000 -0.000000 -0.000000 -0.000000 -0.000000 -0.000000 -0.000000 -0.000000 -0.000000 -0.000000 -0.000000 -0.000000 -0.000000 -0.000000 -0.000000 -0.000000 -0.000000 -0.000000 -0.000000 -0.000000 -0.000000 -0.000000 -0.000000 -0.000000 -0.000000 -0.000000 -0.000000 -0.000000 -0.000000 -0.000000 -0.000000 -0.000000 -0.000000 -0.000000 -0.000000 -0.000000 -0.000000 -0.000000 -0.000000 -0.000000 -0.000000 -0.000000 -0.000000 -0.000000 -0.000000 -0.000000 -0.000000 -0.000000 -0.000000 -0.000000 -0.000000 -0.000000 -0.000000 -0.000000 -0.000000 -0.000000 -0.000000 -0.000000 -0.000000 -0.000000 -0.000000 -0.000000 -0.000000 -0.000000 -0.000000 -0.000000 -0.000000 -0.000000 -0.000000 -0.000000 -0.000000 -0.000000 -0.000000 -0.000000 -0.000000 -0.000000 -0.000000 -0.000000 -0.000000 -0.000000 -0.000000 -0.000000 -0.000000 -0.000000 -0.000000 -0.000000 -0.000000 -0.000000 -0.000000 -0.000000 -0.000000 -0.000000 -0.000000 -0.000000 -0.000000 -0.000000 -0.000000 -0.000000 -0.000000 -0.000000 -0.000000 -0.000000 -0.000000 -0.000000 -0.000000 -0.000000 -0.000000 -0.000000 -0.000000 -0.000000 -0.000000 -0.000000 -0.000000 -0.000000 -0.000000 -0.000000 -0.000000 -0.000000 -0.000000 -0.000000 -0.000000 -0.000000 -0.000000 -0.000000 -0.000000 -0.000000 -0.000000 -0.000000 -0.000000 -0.000000 -0.000000 -0.000000 -0.000000 -0.000000 -0.000000 -0.000000 -0.000000 -0.000000 -0.000000 -0.000000 -0.000000 -0.000000 -0.000000 -0.000000 -0.000000 -0.000000 -0.000000 -0.000000 -0.000000 -0.000000 -0.000000 -0.000000 -0.000000 -0.000000 -0.000000 -0.000000 -0.000000 -0.000000 -0.000000 -0.000000 -0.000000 -0.000000 -0.000000 -0.000000 -0.000000 -0.000000 -0.000000 -0.000000 -0.000000 -0.000000 -0.000000 -0.000000 -0.000000 -0.000000 -0.000000 -0.000000 -0.000000 -0.000000 -0.000000 -0.000000 -0.000000 -0.000000 -0.000000 -0.000000 -0.000000 -0.000000 -0.000000 -0.000000 -0.000000 -0.000000 -0.000000 -0.000000 -0.000000 -0.000000 -0.000000 -0.000000 -0.000000 -0.000000 -0.000000 -0.000000 -0.000000 -0.000000 -0.000000 -0.000000 -0.000000 -0.000000 -0.000000 -0.000000 -0.000000 -0.000000 -0.000000 -0.000000 -0.000000 -0.000000 -0.000000 -0.000000 0.000000 0.000000 0.000000 0.000000 0.000000 0.000000 0.000000 0.000000 0.000000 0.000000 0.000000 0.000000 0.000001 0.000001 0.000001 0.000001 0.000001 0.000001 0.000002 0.000002 0.000002 0.000002 0.000001 0.000001 0.000003 0.000003 0.000003 0.000003 0.000003 0.000003 0.000005 0.000005 0.000005 0.000005 0.000004 0.000004 0.000007 0.000007 0.000007 0.000007 0.000007 0.000007 0.000012 0.000012 0.000012 0.000012 0.000012 0.000011 0.000019 0.000019 0.000019 0.000018 0.000018 0.000018 0.000029 0.000029 0.000029 0.000029 0.000028 0.000027 0.000044 0.000044 0.000044 0.000044 0.000043 0.000042 0.000066 0.000066 0.000066 0.000066 0.000065 0.000064 0.000100 0.000100 0.000100 0.000100 0.000099 0.000099 0.000150 0.000150 0.000150 0.000150 0.000151 0.000153 0.000224 0.000224 0.000224 0.000225 0.000231 0.000243 0.000332 0.000332 0.000332 0.000335 0.000360 0.000400 0.000488 0.000488 0.000488 0.000495 0.000573 0.000699 0.000700 0.000700 0.000700 0.000720 0.000938 0.001329 0.000968 0.000968 0.000968 0.001011 0.001517 0.002862 0.001272 0.001272 0.001272 0.001343 0.002226 0.004885 0.009616 0.016880 0.026508 0.040263 0.060256 0.089304 0.131248 0.191302 0.276467 0.396018 0.562066 0.790199 1.100192 1.516766 2.070396 2.798144 3.744512 4.962303 6.513494 8.470112 10.915079 13.942965 17.660471 22.186376 27.650472 34.190823 41.948482 51.058624 61.637025 73.760971 87.444087 102.605361 119.033721 136.350944 153.977245 171.105381 186.690183 199.460606 207.960251 210.619352 205.856159 192.198366 168.405370 133.558216 87.060846 28.449004 -43.204156 -130.748357 -242.339334 -399.209425 -654.378455 -1131.537619 -2318.478022 -2386.444379 1756.905860 2734.984622 1184.975187 378.917155 -540.302457 -2213.393368 -988.582475 2721.418937 2720.409756 1939.811841 1534.294246 1440.771698 2900.339050 -869.273196 -3555.885646 9352.816363 288.741722 7256.319626 12678.131248 12357.069049 21231.551674 28918.402673 25577.153605 33373.074044 17414.604360 23749.209068 21673.073643 17940.569754 18772.185047 17010.668069 15110.582116 14791.823104 17735.412199 22153.650418 22542.657759 24555.723865 24938.367450 24363.018127 27052.930291 25637.180347 24354.362492 27066.396076 27140.656580 28772.707532 25760.124490 29099.654710 25846.723453 23008.946110 23001.469557 23001.469557 23001.469557 0.001590 0.001590 0.001590 0.001683 0.002852 0.006160 0.010834 0.017570 0.027222 0.041209 0.061585 0.091182 0.133882 0.194956 0.281476 0.402799 0.571131 0.802164 1.115786 1.536836 2.095914 2.830207 3.784343 5.011255 6.573049 8.541877 11.000776 14.044391 17.779425 22.324514 27.809061 34.370374 42.148220 51.275797 61.866081 73.992643 87.664527 102.795461 119.168862 136.401399 153.909487 170.884503 186.283535 198.842679 207.118765 209.562653 204.622744 190.871245 167.138496 132.632343 87.008623 30.339204 -37.120101 -115.563599 -207.106650 -318.978369 -469.564652 -695.439018 -999.888781 -839.866181 729.259604 1227.531006 853.975031 531.919558 190.456932 -270.986835 278.595318 1886.461638 2249.171693 2208.236923 2208.040357 2389.163129 2762.553426 2602.728285 4153.252279 9773.063687 11958.411627 13958.305706 13273.417562 14273.057204 16130.349591 17595.718328 16095.955424 17919.205388 15283.785305 16276.835400 17309.000332 17401.382170 17375.098430 16785.686156 17002.504464 17368.544734 18969.344408 21400.192571 22174.452104 24140.712847 24224.245427 23112.465498 24877.985944 24706.324800 25026.736112 24857.938233 22959.632693 24337.066223 23124.272662 22166.772276 21875.424428 22604.101274 22621.976107 22621.976107 22621.976107 0.001780 0.001780 0.001780 0.001888 0.003175 0.006740 0.011486 0.018239 0.028024 0.042300 0.063126 0.093360 0.136936 0.199190 0.287274 0.410640 0.581602 0.815972 1.133766 1.559961 2.125296 2.867101 3.830153 5.067528 6.641481 8.624309 11.099173 14.160801 17.915887 22.482886 27.990744 34.575873 42.376544 51.523675 62.127018 74.255897 87.914131 103.009486 119.319152 136.454063 153.826409 170.626084 185.812783 198.130622 206.151060 208.347385 203.200006 189.326878 165.628622 131.434828 86.638630 31.812641 -31.686682 -101.591811 -174.481668 -245.182241 -305.085150 -336.550202 -291.652116 -81.299729 273.867777 528.932451 625.215812 664.494858 722.006744 880.219176 1244.022948 1750.536785 2159.370322 2478.276136 2831.259646 3332.632876 4045.411043 5060.656700 6672.569341 8672.711600 10096.009165 10861.551126 11377.843082 12002.762229 12684.845847 13255.135157 13766.185189 14292.340834 14787.451941 15456.142218 16121.373824 16661.949707 17051.798184 17301.339017 17550.707761 17908.872628 18441.214491 19134.032454 19863.384909 20604.096162 21012.860535 21214.188519 21593.416272 21674.883845 21767.575393 21913.007909 21916.191142 22234.204533 22083.595416 21991.600513 22284.735010 22446.608806 22413.967147 22413.967147 22413.967147 0.001808 0.001808 0.001808 0.001920 0.003220 0.006816 0.011582 0.018350 0.028166 0.042497 0.063404 0.093754 0.137487 0.199954 0.288319 0.412053 0.583488 0.818459 1.137003 1.564122 2.130580 2.873735 3.838386 5.077639 6.653775 8.639114 11.116841 14.181698 17.940377 22.511299 28.023324 34.612703 42.417436 51.568030 62.173657 74.302881 87.958586 103.047476 119.345634 136.462976 153.810949 170.579191 185.727868 198.002516 205.977168 208.129015 202.943952 189.047623 165.352159 131.206658 86.541723 32.008514 -30.864345 -99.425284 -169.395975 -233.730094 -280.065050 -285.699463 -212.311821 -23.520713 242.938880 464.925951 595.773260 684.239138 796.721007 1000.441115 1342.043599 1767.243968 2163.784610 2523.011539 2928.573733 3486.042399 4279.577802 5376.436002 6819.175111 8376.128642 9586.868075 10383.300437 11012.850830 11661.360802 12323.104949 12947.574596 13550.424970 14157.256477 14762.660207 15401.141807 16015.495034 16540.748711 16952.635212 17265.696153 17551.002554 17885.263259 18331.886269 18904.561341 19538.878089 20136.398654 20574.487203 20883.260761 21132.969235 21269.081239 21378.036475 21578.789831 21833.424806 21952.079325 21964.398317 22107.479577 22299.628782 22379.410295 22389.585500 22389.585500 22389.585500 0.001808 0.001808 0.001808 0.001920 0.003220 0.006816 0.011582 0.018350 0.028166 0.042497 0.063404 0.093754 0.137487 0.199954 0.288319 0.412053 0.583488 0.818459 1.137003 1.564122 2.130580 2.873735 3.838386 5.077639 6.653775 8.639114 11.116841 14.181698 17.940377 22.511299 28.023324 34.612703 42.417436 51.568030 62.173657 74.302881 87.958586 103.047476 119.345634 136.462976 153.810949 170.579191 185.727868 198.002516 205.977168 208.129015 202.943952 189.047623 165.352159 131.206658 86.541723 32.008514 -30.864345 -99.425284 -169.395975 -233.730094 -280.065050 -285.699463 -212.311821 -23.520713 242.938880 464.925951 595.773260 684.239138 796.721007 1000.441115 1342.043599 1767.243968 2163.784610 2523.011539 2928.573733 3486.042399 4279.577802 5376.436002 6819.175111 8376.128642 9586.868075 10383.300437 11012.850830 11661.360802 12323.104949 12947.574596 13550.424970 14157.256477 14762.660207 15401.141807 16015.495034 16540.748711 16952.635212 17265.696153 17551.002554 17885.263259 18331.886269 18904.561341 19538.878089 20136.398654 20574.487203 20883.260761 21132.969235 21269.081239 21378.036475 21578.789831 21833.424806 21952.079325 21964.398317 22107.479577 22299.628782 22379.410295 22389.585500 22389.585500 22389.585500 0.001808 0.001808 0.001808 0.001920 0.003220 0.006816 0.011582 0.018350 0.028166 0.042497 0.063404 0.093754 0.137487 0.199954 0.288319 0.412053 0.583488 0.818459 1.137003 1.564122 2.130580 2.873735 3.838386 5.077639 6.653775 8.639114 11.116841 14.181698 17.940377 22.511299 28.023324 34.612703 42.417436 51.568030 62.173657 74.302881 87.958586 103.047476 119.345634 136.462976 153.810949 170.579191 185.727868 198.002516 205.977168 208.129015 202.943952 189.047623 165.352159 131.206658 86.541723 32.008514 -30.864345 -99.425284 -169.395975 -233.730094 -280.065050 -285.699463 -212.311821 -23.520713 242.938880 464.925951 595.773260 684.239138 796.721007 1000.441115 1342.043599 1767.243968 2163.784610 2523.011539 2928.573733 3486.042399 4279.577802 5376.436002 6819.175111 8376.128642 9586.868075 10383.300437 11012.850830 11661.360802 12323.104949 12947.574596 13550.424970 14157.256477 14762.660207 15401.141807 16015.495034 16540.748711 16952.635212 17265.696153 17551.002554 17885.263259 18331.886269 18904.561341 19538.878089 20136.398654 20574.487203 20883.260761 21132.969235 21269.081239 21378.036475 21578.789831 21833.424806 21952.079325 21964.398317 22107.479577 22299.628782 22379.410295 22389.585500 22389.585500 22389.585500 -1396.702997 -1463.546574 -1555.267137 -1686.921653 -1888.393780 -2265.096406 -2550.762210 -1089.636407 -60.367780 -911.446279 -1643.237811 -305.523909 965.752985 276.612479 -468.127182 -1267.890071 -863.087093 1061.418060 915.730782 -115.282395 -1025.975384 -2285.167167 -2976.616453 626.032430 -424.769438 -1288.207072 5470.197148 3991.808105 1598.063654 185.183692 -1326.634629 683.213733 3055.600454 2864.606916 3398.889627 3959.744533 5725.079365 7384.014474 7514.245848 7467.818463 7313.962524 7943.307194 9178.394835 10229.091020 10405.418071 11668.905851 12362.711544 12563.914222 12882.981385 13108.033220 13219.339042 13281.319735 13175.606720 13187.494011 13187.494011 13187.494011 -384.492178 -285.722348 3467.736803 9687.430069 14801.357713 13504.403586 15859.689413 16412.578858 13785.110339 16809.852960 12894.037560 12445.009109 14859.325412 13749.770574 14573.405735 13832.280640 13622.085419 14070.594831 13785.763529 14512.598976 12892.678388 12814.626043 12478.672142 14041.845529 13212.979331 12525.264150 14507.861142 13073.454324 13488.888393 13210.427855 13961.216898 14133.957235 13428.563369 12821.042062 12392.484310 14223.935025 14241.574524 14493.796318 15525.898271 15286.593595 14022.815858 12443.562806 11903.512127 14568.278721 14996.335591 12945.011078 11128.106970 14398.378757 12742.203703 13401.346429 14239.743398 13479.235704 13286.308578 13299.568575 13299.568575 13299.568575 99.585779 -2107.233568 14206.298878 4243.480515 17820.621621 13397.829152 14148.145806 16007.625137 14017.172699 13180.439537 12208.476506 13086.728230 14319.123435 12929.344991 14363.250308 16158.122135 13894.708770 14581.206000 12915.304547 14924.602333 12133.185121 14296.576822 12315.945554 12512.607835 13762.769817 13082.365947 14133.624612 15013.305579 14202.119625 13027.589665 10163.517423 12007.800896 14012.454731 12687.075410 13252.072840 11974.859319 13512.065525 12241.222078 12317.075694 14937.932761 11522.054473 11452.285543 12108.349678 15316.010796 11583.250935 11168.645784 13041.011575 15075.603076 12115.097573 14422.173592 15233.900406 14070.101220 13494.768557 13476.563706 13476.563706 13476.563706 -509.331471 1701.119397 12643.862346 15310.119053 13623.846494 14905.632127 12973.895246 14832.961435 12555.443297 14752.676250 13742.585131 16516.766122 14476.741302 14852.087390 13959.703301 23760.313315 15339.218469 15648.742580 14639.869395 11003.722019 9163.522105 14701.973236 10445.926019 14084.684641 13483.668942 12869.115467 22274.585396 12834.793330 13669.813623 12565.560202 13956.5072