<VTKFile type="PolyData">
<PolyData>
<Piece NumberOfPoints="8632" NumberOfVerts="8632" NumberOfLines="0" NumberOfStrips="0" NumberOfPolys="0">
<PointData>
<DataArray type="Float64" Name="Pressure" format="ascii">
 -0.004290 -0.004290 -0.004290 -0.004548 -0.007521 -0.015681 -0.026257 -0.040698 -0.060594 -0.088117 -0.126229 -0.178879 -0.251268 -0.350194 -0.484468 -0.665418 -0.907476 -1.228861 -1.652354 -2.206163 -2.924868 -3.850422 -5.033200 -6.533032 -8.420209 -10.776378 -13.695301 -17.283387 -21.659976 -26.957297 -33.320106 -40.904979 -49.879302 -60.420025 -72.712277 -86.947983 -103.324615 -122.044226 -143.312866 -167.340417 -194.340777 -224.532202 -258.137474 -295.383427 -336.499287 -381.713199 -431.246329 -485.303787 -544.060974 -607.641605 -676.076660 -749.214811 -826.509758 -906.518945 -985.783863 -1057.252246 -1109.663791 -1126.226062 -1077.720050 -940.671975 -759.700493 -609.111695 -475.469285 -319.906973 -189.927527 -154.019726 -179.071468 -182.710628 -122.345218 -52.666522 -41.601347 -45.514537 12.377466 113.515588 179.247354 231.842628 333.509123 442.603119 484.732554 484.543518 525.730494 659.937455 841.776491 988.169296 1110.730032 1296.041946 1608.210509 2013.151619 2440.981148 2924.741937 3555.839364 4350.626771 5216.763659 6064.328099 6873.943631 7647.610294 8399.643749 9159.937456 9905.001513 10579.167511 11154.504699 11645.718267 12078.324278 12468.361631 12821.434860 13183.141691 13615.471077 13961.222497 14031.939916 14031.939916 14031.939916 -0.004290 -0.004290 -0.004290 -0.004548 -0.007521 -0.015681 -0.026257 -0.040698 -0.060594 -0.088117 -0.126229 -0.178879 -0.251268 -0.350194 -0.484468 -0.665418 -0.907476 -1.228861 -1.652354 -2.206163 -2.924868 -3.850422 -5.033200 -6.533032 -8.420209 -10.776378 -13.695301 -17.283387 -21.659976 -26.957297 -33.320106 -40.904979 -49.879302 -60.420025 -72.712277 -86.947983 -103.324615 -122.044226 -143.312866 -167.340417 -194.340777 -224.532202 -258.137474 -295.383427 -336.499287 -381.713199 -431.246329 -485.303787 -544.060974 -607.641605 -676.076660 -749.214811 -826.509758 -906.518945 -985.783863 -1057.252246 -1109.663791 -1126.226062 -1077.720050 -940.671975 -759.700493 -609.111695 -475.469285 -319.906973 -189.927527 -154.019726 -179.071468 -182.710628 -122.345218 -52.666522 -41.601347 -45.514537 12.377466 113.515588 179.247354 231.842628 333.509123 442.603119 484.732554 484.543518 525.730494 659.937455 841.776491 988.169296 1110.730032 1296.041946 1608.210509 2013.151619 2440.981148 2924.741937 3555.839364 4350.626771 5216.763659 6064.328099 6873.943631 7647.610294 8399.643749 9159.937456 9905.001513 10579.167511 11154.504699 11645.718267 12078.324278 12468.361631 12821.434860 13183.141691 13615.471077 13961.222497 14031.939916 14031.939916 14031.939916 -0.004290 -0.004290 -0.004290 -0.004548 -0.007521 -0.015681 -0.026257 -0.040698 -0.060594 -0.088117 -0.126229 -0.178879 -0.251268 -0.350194 -0.484468 -0.665418 -0.907476 -1.228861 -1.652354 -2.206163 -2.924868 -3.850422 -5.033200 -6.533032 -8.420209 -10.776378 -13.695301 -17.283387 -21.659976 -26.957297 -33.320106 -40.904979 -49.879302 -60.420025 -72.712277 -86.947983 -103.324615 -122.044226 -143.312866 -167.340417 -194.340777 -224.532202 -258.137474 -295.383427 -336.499287 -381.713199 -431.246329 -485.303787 -544.060974 -607.641605 -676.076660 -749.214811 -826.509758 -906.518945 -985.783863 -1057.252246 -1109.663791 -1126.226062 -1077.720050 -940.671975 -759.700493 -609.111695 -475.469285 -319.906973 -189.927527 -154.019726 -179.071468 -182.710628 -122.345218 -52.666522 -41.601347 -45.514537 12.377466 113.515588 179.247354 231.842628 333.509123 442.603119 484.732554 484.543518 525.730494 659.937455 841.776491 988.169296 1110.730032 1296.041946 1608.210509 2013.151619 2440.981148 2924.741937 3555.839364 4350.626771 5216.763659 6064.328099 6873.943631 7647.610294 8399.643749 9159.937456 9905.001513 10579.167511 11154.504699 11645.718267 12078.324278 12468.361631 12821.434860 13183.141691 13615.471077 13961.222497 14031.939916 14031.939916 14031.939916 -0.004244 -0.004244 -0.004244 -0.004496 -0.007436 -0.015521 -0.026085 -0.040555 -0.060459 -0.087960 -0.126025 -0.178605 -0.250900 -0.349704 -0.483821 -0.664570 -0.906374 -1.227440 -1.650539 -2.203863 -2.921979 -3.846826 -5.028761 -6.527604 -8.413629 -10.768476 -13.685894 -17.272293 -21.647009 -26.942278 -33.302867 -40.885363 -49.857172 -60.395263 -72.684784 -86.917680 -103.291433 -122.008107 -143.273751 -167.298245 -194.295484 -224.483725 -258.085771 -295.328525 -336.441376 -381.652847 -431.184976 -485.244925 -544.013056 -607.625283 -676.142796 -749.488771 -827.295875 -908.522544 -990.245250 -1065.811818 -1124.296726 -1150.505790 -1107.636072 -956.361922 -738.382475 -603.153279 -486.018553 -313.785147 -152.058450 -133.280319 -187.101782 -207.247746 -127.837070 -31.660544 -36.853478 -70.322373 -6.780533 124.708761 181.674764 208.406987 325.292982 462.934483 495.331844 463.565316 481.952503 630.232506 842.812496 983.438029 1072.270036 1229.055602 1550.856155 1983.415874 2400.817500 2851.755351 3474.219781 4305.525302 5211.720439 6071.204405 6885.990065 7661.243592 8391.644911 9159.880236 9928.116360 10608.671305 11162.868103 11630.291537 12044.818583 12435.630840 12774.993207 13112.851634 13564.573662 13943.702891 14020.592275 14020.592275 14020.592275 -0.003753 -0.003753 -0.003753 -0.003947 -0.006413 -0.013377 -0.023881 -0.039059 -0.059117 -0.086397 -0.123987 -0.175874 -0.247239 -0.344824 -0.477370 -0.656112 -0.895378 -1.213267 -1.632424 -2.180911 -2.893148 -3.810927 -4.984456 -6.473409 -8.347931 -10.689551 -13.591941 -17.161465 -21.517463 -26.792220 -33.130600 -40.689335 -49.636006 -60.147778 -72.409999 -86.614789 -102.959767 -121.647072 -142.882775 -166.876719 -193.842754 -223.999154 -257.568933 -294.779649 -335.862295 -381.049081 -430.570521 -484.653734 -543.527271 -607.445531 -676.763765 -752.135768 -834.994956 -928.512250 -1039.602638 -1163.328784 -1286.490650 -1427.419666 -1579.671925 -1230.684510 -430.704786 -487.378167 -766.725314 -296.100803 434.390620 154.824975 -299.515951 -650.398757 -243.097515 434.115032 61.348558 -482.641901 -386.939173 464.808686 289.235960 -237.734118 151.489236 871.432073 672.750985 203.079317 -149.639488 183.341652 1007.073021 1005.765556 620.320594 332.729051 776.159626 1789.298617 2017.207264 1965.377273 2405.871358 3728.070318 5187.237870 6115.499122 6984.088524 7811.066322 8155.654066 8922.621684 10037.658136 10864.839750 11104.881009 11344.070593 11676.761678 12202.917368 12522.984685 12368.113168 13006.844992 13772.924529 13915.699490 13915.699490 13915.699490 -0.003102 -0.003102 -0.003102 -0.003247 -0.004950 -0.009679 -0.019271 -0.036757 -0.057469 -0.084598 -0.121684 -0.172801 -0.243120 -0.339334 -0.470107 -0.646584 -0.882984 -1.197281 -1.611981 -2.154991 -2.860571 -3.770340 -4.934337 -6.412070 -8.273535 -10.600134 -13.485447 -17.035790 -21.370502 -26.621927 -32.935039 -40.466735 -49.384797 -59.866620 -72.097779 -86.270598 -102.582855 -121.236779 -142.438459 -166.397704 -193.328313 -223.448596 -256.981864 -294.156578 -335.205976 -380.367538 -429.884124 -484.012332 -543.052483 -607.436279 -677.961034 -756.390994 -846.986165 -960.445099 -1125.164514 -1301.966567 -1483.707187 -1776.831887 -2275.840346 -1689.162378 -41.856708 -337.602742 -1324.388994 -436.033273 1245.217797 591.386983 -499.504451 -1529.988123 -537.667580 1361.599836 347.665941 -1397.561533 -1269.424641 1393.145364 694.532373 -1489.751364 -254.529694 2088.068134 1132.052314 -153.584033 -1507.902549 -754.500460 1871.278687 1369.819105 36.006525 -1433.812318 -656.521279 2235.463476 1880.329365 630.638457 12.513500 2204.570813 5227.846816 5869.828990 5706.751972 8743.018382 6675.317937 7226.549597 9682.088862 10796.534716 10437.871729 11088.822226 10733.199788 12234.553023 13744.109655 11155.298545 12108.233735 13668.076774 13835.965450 13835.965450 13835.965450 -0.003018 -0.003018 -0.003018 -0.003156 -0.004759 -0.009108 -0.002484 -0.002484 -0.002484 -0.002571 -0.003575 -0.005828 -0.001756 -0.001756 -0.001756 -0.001794 -0.002194 -0.002872 -0.001198 -0.001198 -0.001198 -0.001212 -0.001350 -0.001574 -0.000800 -0.000800 -0.000800 -0.000804 -0.000846 -0.000916 -0.000525 -0.000525 -0.000525 -0.000526 -0.000536 -0.000554 -0.000341 -0.000341 -0.000341 -0.000341 -0.000341 -0.000343 -0.000220 -0.000220 -0.000220 -0.000219 -0.000216 -0.000214 -0.000140 -0.000140 -0.000140 -0.000140 -0.000137 -0.000135 -0.000089 -0.000089 -0.000089 -0.000089 -0.000086 -0.000084 -0.000056 -0.000056 -0.000056 -0.000056 -0.000054 -0.000053 -0.000035 -0.000035 -0.000035 -0.000035 -0.000034 -0.000033 -0.000022 -0.000022 -0.000022 -0.000022 -0.000021 -0.000020 -0.000013 -0.000013 -0.000013 -0.000013 -0.000013 -0.000012 -0.000008 -0.000008 -0.000008 -0.000008 -0.000008 -0.000008 -0.000005 -0.000005 -0.000005 -0.000005 -0.000005 -0.000005 -0.000003 -0.000003 -0.000003 -0.000003 -0.000003 -0.000003 -0.000002 -0.000002 -0.000002 -0.000002 -0.000002 -0.000002 -0.000001 -0.000001 -0.000001 -0.000001 -0.000001 -0.000001 -0.000001 -0.000001 -0.000001 -0.000001 -0.000001 -0.000001 -0.000000 -0.000000 -0.000000 -0.000000 -0.000000 -0.000000 -0.000000 -0.000000 -0.000000 -0.000000 -0.000000 -0.000000 -0.000000 -0.000000 -0.000000 -0.000000 -0.000000 -0.000000 -0.000000 -0.000000 -0.000000 -0.000000 -0.000000 -0.000000 -0.000000 -0.000000 -0.000000 -0.000000 -0.000000 -0.000000 -0.000000 -0.000000 -0.000000 -0.000000 -0.000000 -0.000000 -0.000000 -0.000000 -0.000000 -0.000000 -0.000000 -0.000000 -0.000000 -0.000000 -0.000000 -0.000000 -0.000000 -0.000000 -0.000000 -0.000000 -0.000000 -0.000000 -0.000000 -0.000000 -0.000000 -0.000000 -0.000000 -0.000000 -0.000000 -0.000000 -0.000000 -0.000000 -0.000000 -0.000000 -0.000000 -0.000000 -0.000000 -0.000000 -0.000000 -0.000000 -0.000000 -0.000000 0.000000 0.000000 0.000000 -0.000000 0.000000 -0.000000 0.000000 0.000000 0.000000 -0.000000 0.000000 0.000000 0.000000 0.000000 0.000000 -0.000000 0.000000 0.000000 0.000000 0.000000 0.000000 -0.000000 0.000000 0.000000 0.000000 0.000000 0.000000 -0.000000 0.000000 0.000000 0.000000 0.000000 0.000000 -0.000000 0.000000 0.000000 0.000000 0.000000 0.000000 0.000000 0.000000 0.000000 -0.000000 -0.000000 -0.000000 0.000000 -0.000000 0.000000 -0.000000 -0.000000 -0.000000 -0.000000 -0.000000 -0.000000 -0.000000 -0.000000 -0.000000 -0.000000 -0.000000 -0.000000 -0.000000 -0.000000 -0.000000 -0.000000 -0.000000 -0.000000 -0.000000 -0.000000 -0.000000 -0.000000 -0.000000 -0.000000 -0.000000 -0.000000 -0.000000 -0.000000 -0.000000 -0.000000 -0.000000 -0.000000 -0.000000 -0.000000 -0.000000 -0.000000 -0.000000 -0.000000 -0.000000 -0.000000 -0.000000 -0.000000 -0.000000 -0.000000 -0.000000 -0.000000 -0.000000 -0.000000 -0.000000 -0.000000 -0.000000 -0.000000 -0.000000 -0.000000 -0.000000 -0.000000 -0.000000 -0.000000 -0.000000 -0.000000 -0.000000 -0.000000 -0.000000 -0.000000 -0.000000 -0.000000 -0.000000 -0.000000 -0.000000 -0.000000 -0.000000 -0.000000 -0.000000 -0.000000 -0.000000 -0.000000 -0.000000 -0.000000 -0.000000 -0.000000 -0.000000 -0.000000 -0.000000 -0.000000 -0.000000 -0.000000 -0.000000 -0.000000 -0.000000 -0.000000 -0.000000 -0.000000 -0.000000 -0.000000 -0.000000 -0.000000 -0.000000 -0.000000 -0.000000 -0.000000 -0.000000 -0.000000 -0.000000 -0.000000 -0.000000 -0.000000 -0.000000 -0.000000 -0.000000 -0.000000 -0.000000 -0.000000 -0.000000 -0.000000 -0.000000 -0.000000 -0.000000 -0.000000 -0.000000 -0.000000 -0.000000 -0.000000 -0.000000 -0.000000 -0.000000 -0.000000 -0.000000 -0.000000 -0.000000 -0.000000 -0.000000 -0.000000 -0.000000 -0.000000 -0.000000 -0.000000 -0.000000 -0.000000 -0.000000 -0.000000 -0.000000 -0.000000 -0.000000 -0.000000 -0.000000 -0.000000 -0.000000 -0.000000 -0.000000 -0.000000 -0.000000 -0.000000 -0.000000 -0.000000 -0.000000 -0.000000 -0.000000 -0.000000 -0.000000 -0.000000 -0.000000 -0.000000 -0.000000 -0.000000 -0.000000 -0.000000 -0.000000 -0.000000 -0.000000 -0.000000 -0.000000 -0.000000 -0.000000 -0.000000 -0.000000 -0.000000 -0.000000 -0.000000 -0.000000 -0.000000 -0.000000 -0.000000 -0.000000 -0.000000 -0.000000 -0.000000 -0.000000 -0.000000 -0.000000 -0.000000 -0.000000 -0.000000 -0.000000 -0.000000 -0.000000 -0.000000 -0.000000 -0.000000 -0.000000 -0.000000 -0.000000 -0.000000 -0.000000 -0.000000 -0.000000 -0.000000 -0.000000 -0.000000 -0.000000 -0.000000 -0.000000 -0.000000 -0.000000 -0.000000 -0.000000 -0.000000 -0.000000 -0.000000 -0.000000 -0.000000 -0.000000 -0.000000 -0.000000 -0.000000 -0.000000 -0.000000 -0.000000 -0.000000 -0.000000 -0.000000 -0.000000 -0.000000 -0.000000 -0.000000 -0.000000 -0.000000 -0.000000 -0.000000 -0.000000 -0.000000 -0.000000 -0.000000 -0.000000 -0.000000 -0.000000 -0.000000 -0.000000 -0.000000 -0.000000 -0.000000 -0.000000 -0.000000 -0.000000 -0.000000 -0.000000 -0.000000 -0.000000 -0.000000 -0.000000 -0.000000 -0.000000 -0.000000 -0.000000 -0.000000 -0.000000 -0.000000 -0.000000 -0.000000 -0.000000 -0.000000 -0.000000 -0.000000 -0.000000 -0.000000 -0.000000 -0.000000 -0.000000 -0.000000 -0.000000 -0.000000 -0.000000 -0.000000 -0.000000 -0.000000 -0.000000 -0.000000 -0.000000 -0.000000 -0.000000 -0.000000 -0.000000 -0.000000 -0.000000 -0.000000 -0.000000 -0.000000 -0.000000 -0.000000 -0.000000 -0.000000 -0.000000 -0.000000 -0.000000 -0.000000 -0.000000 -0.000000 -0.000000 -0.000000 -0.000000 -0.000000 -0.000000 -0.000000 -0.000000 -0.000000 -0.000000 -0.000000 -0.000000 -0.000000 -0.000000 -0.000000 -0.000000 -0.000000 -0.000000 -0.000000 -0.000000 -0.000000 -0.000000 -0.000000 -0.000000 -0.000000 -0.000000 -0.000000 -0.000000 -0.000000 -0.000000 -0.000000 -0.000000 -0.000000 -0.000000 -0.000000 -0.000000 -0.000000 -0.000000 -0.000000 -0.000000 -0.000000 -0.000000 -0.000000 -0.000000 -0.000000 -0.000000 -0.000000 -0.000000 -0.000000 -0.000000 -0.000000 -0.000000 -0.000000 -0.000000 -0.000000 -0.000000 -0.000000 -0.000000 -0.000000 -0.000000 -0.000000 -0.000000 -0.000000 -0.000000 -0.000000 -0.000000 -0.000000 -0.000000 -0.000000 -0.000000 -0.000000 -0.000000 -0.000000 -0.000000 -0.000000 -0.000000 -0.000000 -0.000000 -0.000000 -0.000000 -0.000000 -0.000000 -0.000000 -0.000000 -0.000000 -0.000000 -0.000000 -0.000000 -0.000000 -0.000000 -0.000000 -0.000000 -0.000000 -0.000000 -0.000000 -0.000000 -0.000000 -0.000000 -0.000000 -0.000000 -0.000000 -0.000000 -0.000000 -0.000000 -0.000000 -0.000000 -0.000000 -0.000000 -0.000000 -0.000000 -0.000000 -0.000000 -0.000000 -0.000000 -0.000000 -0.000000 -0.000000 -0.000000 -0.000000 -0.000000 -0.000000 -0.000000 -0.000000 -0.000000 -0.000000 -0.000000 -0.000000 -0.000000 -0.000000 -0.000000 -0.000000 -0.000000 -0.000000 -0.000000 -0.000000 -0.000000 -0.000000 -0.000000 -0.000000 -0.000000 -0.000000 -0.000000 -0.000000 -0.000000 -0.000000 -0.000000 -0.000000 -0.000000 -0.000000 -0.000000 -0.000000 -0.000000 -0.000000 -0.000000 -0.000000 -0.000000 -0.000000 -0.000000 -0.000000 -0.000000 -0.000000 -0.000000 -0.000000 -0.000000 -0.000000 -0.000000 -0.000000 -0.000000 -0.000000 -0.000000 -0.000000 -0.000000 -0.000000 -0.000000 -0.000000 -0.000000 -0.000000 -0.000000 -0.000000 -0.000000 -0.000000 -0.000000 -0.000000 -0.000000 -0.000000 -0.000000 -0.000000 -0.000000 -0.000000 -0.000000 -0.000000 -0.000000 -0.000000 -0.000000 -0.000000 -0.000000 -0.000000 -0.000000 -0.000000 -0.000000 -0.000000 -0.000000 -0.000000 -0.000000 -0.000000 -0.000000 -0.000000 -0.000000 -0.000000 -0.000000 -0.000000 -0.000000 -0.000000 -0.000000 -0.000000 -0.000000 -0.000000 -0.000000 -0.000000 -0.000000 -0.000000 -0.000000 -0.000000 -0.000000 -0.000000 -0.000000 -0.000000 -0.000000 -0.000000 -0.000000 -0.000000 -0.000000 -0.000000 -0.000000 -0.000000 -0.000000 -0.000000 -0.000000 -0.000000 -0.000000 -0.000000 -0.000000 -0.000000 -0.000000 -0.000000 -0.000000 -0.000000 -0.000000 -0.000000 -0.000000 -0.000000 -0.000000 -0.000000 -0.000000 -0.000000 -0.000000 -0.000000 -0.000000 -0.000000 -0.000000 -0.000000 -0.000000 -0.000000 -0.000000 -0.000000 -0.000000 -0.000000 -0.000000 -0.000000 -0.000000 -0.000000 -0.000000 -0.000000 -0.000000 -0.000000 -0.000000 -0.000000 -0.000000 -0.000000 -0.000000 -0.000000 -0.000000 -0.000000 -0.000000 -0.000000 -0.000000 -0.000000 -0.000000 -0.000000 -0.000000 -0.000000 -0.000000 -0.000000 -0.000000 -0.000000 -0.000000 -0.000000 -0.000000 -0.000000 -0.000000 -0.000000 -0.000000 -0.000000 -0.000000 -0.000000 -0.000000 -0.000000 -0.000000 -0.000000 -0.000000 -0.000000 -0.000000 -0.000000 -0.000000 -0.000000 -0.000000 -0.000000 -0.000000 -0.000000 -0.000000 -0.000000 -0.000000 -0.000000 -0.000000 -0.000000 -0.000000 -0.000000 -0.000000 -0.000000 -0.000000 -0.000000 -0.000000 -0.000000 -0.000000 -0.000000 -0.000000 -0.000000 -0.000000 -0.000000 -0.000000 -0.000000 -0.000000 -0.000000 -0.000000 -0.000000 -0.000000 -0.000000 -0.000000 -0.000000 -0.000000 -0.000000 -0.000000 -0.000000 -0.000000 -0.000000 -0.000000 -0.000000 -0.000000 -0.000000 -0.000000 -0.000000 -0.000000 -0.000000 -0.000000 -0.000000 -0.000000 -0.000000 -0.000000 -0.000000 -0.000000 -0.000000 -0.000000 -0.000000 -0.000000 -0.000000 -0.000000 -0.000000 -0.000000 -0.000000 -0.000000 -0.000000 -0.000000 -0.000000 -0.000000 -0.000000 -0.000000 -0.000000 -0.000000 -0.000000 -0.000000 -0.000000 -0.000000 -0.000000 -0.000000 -0.000000 -0.000000 -0.000000 -0.000000 -0.000000 -0.000000 -0.000000 -0.000000 -0.000000 -0.000000 -0.000000 -0.000000 -0.000000 -0.000000 -0.000000 -0.000000 -0.000000 -0.000000 -0.000000 -0.000000 -0.000000 -0.000000 -0.000000 -0.000000 -0.000000 0.000000 -0.000000 -0.000000 -0.000000 -0.000000 -0.000000 -0.000000 -0.000000 -0.000000 -0.000000 -0.000000 -0.000000 -0.000000 -0.000000 -0.000000 -0.000000 -0.000000 -0.000000 -0.000000 -0.000000 -0.000000 -0.000000 -0.000000 -0.000000 -0.000000 -0.000000 -0.000000 -0.000000 -0.000000 -0.000000 -0.000000 -0.000000 -0.000000 -0.000000 -0.000000 -0.000000 -0.000000 -0.000000 -0.000000 -0.000000 -0.000000 -0.000000 -0.000000 -0.000000 -0.000000 -0.000000 -0.000000 -0.000000 -0.000000 -0.000000 -0.000000 -0.000000 -0.000000 -0.000000 -0.000000 -0.000000 -0.000000 -0.000000 -0.000000 -0.000000 -0.000000 -0.000000 -0.000000 -0.000000 -0.000000 -0.000000 -0.000000 -0.000000 -0.000000 -0.000000 -0.000000 -0.000000 -0.000000 -0.000000 -0.000000 -0.000000 -0.000000 -0.000000 -0.000000 -0.000000 -0.000000 -0.000000 -0.000000 -0.000000 -0.000000 -0.000000 -0.000000 -0.000000 -0.000000 -0.000000 -0.000000 -0.000000 -0.000000 -0.000000 -0.000000 -0.000000 -0.000000 -0.000000 -0.000000 -0.000000 -0.000000 -0.000000 -0.000000 -0.000000 -0.000000 -0.000000 -0.000000 -0.000000 -0.000000 -0.000000 -0.000000 -0.000000 -0.000000 -0.000000 -0.000000 -0.000000 -0.000000 -0.000000 -0.000000 -0.000000 -0.000000 -0.000000 -0.000000 -0.000000 -0.000000 -0.000000 -0.000000 -0.000000 -0.000000 -0.000000 -0.000000 -0.000000 -0.000000 -0.000000 -0.000000 -0.000000 -0.000000 -0.000000 -0.000000 -0.000000 -0.000000 -0.000000 -0.000000 -0.000000 -0.000000 -0.000000 -0.000000 -0.000000 -0.000000 -0.000000 -0.000000 -0.000000 -0.000000 -0.000000 -0.000000 -0.000000 -0.000000 -0.000000 -0.000000 -0.000000 -0.000000 -0.000000 -0.000000 -0.000000 -0.000000 -0.000000 -0.000000 -0.000000 -0.000000 -0.000000 -0.000000 -0.000000 -0.000000 -0.000000 -0.000000 -0.000000 -0.000000 -0.000000 -0.000000 -0.000000 -0.000000 -0.000000 -0.000000 -0.000000 -0.000000 -0.000000 -0.000000 -0.000000 -0.000000 -0.000000 -0.000000 -0.000000 -0.000000 -0.000000 -0.000000 -0.000000 -0.000000 -0.000000 -0.000000 -0.000000 -0.000000 -0.000000 -0.000000 -0.000000 -0.000000 -0.000000 -0.000000 -0.000000 -0.000000 -0.000000 -0.000000 -0.000000 -0.000000 -0.000000 -0.000000 -0.000000 -0.000000 -0.000000 -0.000000 -0.000000 -0.000000 -0.000000 -0.000000 -0.000000 -0.000000 -0.000000 -0.000000 -0.000000 -0.000000 -0.000000 -0.000000 -0.000000 -0.000000 -0.000000 -0.000000 -0.000000 0.000000 0.000000 0.000000 0.000000 -0.000000 -0.000000 -0.000000 -0.000000 -0.000000 -0.000000 -0.000000 -0.000000 -0.000000 -0.000000 -0.000001 -0.000001 -0.000002 -0.000003 -0.000005 -0.000008 -0.000012 -0.000019 -0.000029 -0.000045 -0.000068 -0.000103 -0.000155 -0.000230 -0.000340 -0.000496 -0.000718 -0.001028 -0.001458 -0.002044 -0.002832 -0.003876 -0.005234 -0.006963 -0.009109 -0.011690 -0.014663 -0.017883 -0.021030 -0.023507 -0.024297 -0.021752 -0.013305 0.004918 0.038630 0.096076 0.188945 0.333542 0.552264 0.875465 1.343726 2.010638 2.946108 4.240268 6.007993 8.394057 11.578898 15.784924 21.283225 28.400458 37.525510 49.115389 63.699558 81.881819 104.338886 131.815325 165.115729 205.097167 252.667811 308.800179 374.567320 451.203034 540.166750 643.149479 761.869355 897.329081 1047.852529 1204.590131 1342.682862 1408.787008 1307.790671 984.803143 777.170315 1084.027241 1847.292357 2771.101932 4139.132420 4008.309209 5652.820147 7273.675711 7035.725521 8209.907956 7994.499193 9868.469483 10465.632271 10378.767274 10758.712280 12476.405775 12444.219942 11008.969753 10968.475456 12699.533015 13657.679900 13084.862097 12872.050127 12872.050127 12872.050127 0.000000 0.000000 0.000000 0.000000 -0.000000 -0.000000 -0.000000 -0.000000 -0.000000 -0.000000 -0.000000 -0.000000 -0.000000 -0.000000 -0.000001 -0.000001 -0.000002 -0.000003 -0.000005 -0.000008 -0.000012 -0.000019 -0.000030 -0.000046 -0.000070 -0.000105 -0.000158 -0.000235 -0.000346 -0.000506 -0.000731 -0.001046 -0.001480 -0.002073 -0.002870 -0.003922 -0.005289 -0.007025 -0.009174 -0.011750 -0.014703 -0.017878 -0.020940 -0.023272 -0.023826 -0.020910 -0.011903 0.007147 0.042055 0.101199 0.196440 0.344300 0.567449 0.896574 1.372666 2.049802 2.998466 4.309453 6.098400 8.510931 11.728414 15.974248 21.520541 28.694936 37.887193 49.554962 64.227977 82.509805 105.076347 132.670868 166.096556 206.209739 253.919573 310.202274 376.137273 452.965444 542.150548 645.388223 764.442959 900.586532 1053.236694 1217.171898 1377.856231 1506.927610 1571.326259 1582.665535 1652.812756 1898.785530 2330.905707 2899.208700 3603.978742 4083.017100 5136.453134 6141.733968 6541.986370 6992.711030 7160.336532 8263.253510 8825.713593 9276.406576 9795.398426 10599.176025 11280.444460 10843.723017 11328.445213 12970.571322 13205.974301 12769.226539 12723.928325 12723.928325 12723.928325 0.000000 0.000000 0.000000 -0.000000 -0.000000 -0.000000 -0.000000 -0.000000 -0.000000 -0.000000 -0.000000 -0.000000 -0.000000 -0.000000 -0.000001 -0.000001 -0.000002 -0.000003 -0.000005 -0.000008 -0.000013 -0.000020 -0.000031 -0.000047 -0.000072 -0.000108 -0.000162 -0.000241 -0.000354 -0.000517 -0.000746 -0.001066 -0.001507 -0.002107 -0.002913 -0.003975 -0.005352 -0.007096 -0.009248 -0.011817 -0.014746 -0.017867 -0.020829 -0.022990 -0.023266 -0.019919 -0.010260 0.009753 0.046050 0.107164 0.205153 0.356789 0.585055 0.921024 1.406155 2.095084 3.058952 4.389321 6.202694 8.645669 11.900676 16.192244 21.793638 29.033618 38.302926 50.059923 64.834635 83.230344 105.922033 133.651533 167.220559 207.484810 255.354900 311.811651 377.942183 454.995696 544.440457 647.973728 767.395722 904.217157 1058.859907 1229.421209 1410.437549 1593.379874 1772.580792 1958.261146 2184.301013 2490.803597 2893.974703 3383.893900 3939.099199 4546.600819 5228.073642 5918.978890 6548.280337 7120.819713 7678.525378 8264.305519 8798.286441 9264.589611 9683.070831 10056.873036 10378.354362 10625.435156 11094.008945 11769.153665 12282.359463 12608.948310 12690.721464 12690.721464 12690.721464 -0.000000 -0.000000 -0.000000 -0.000000 -0.000000 -0.000000 -0.000000 -0.000000 -0.000000 -0.000000 -0.000000 -0.000000 -0.000000 -0.000000 -0.000001 -0.000001 -0.000002 -0.000003 -0.000005 -0.000008 -0.000013 -0.000020 -0.000031 -0.000047 -0.000072 -0.000109 -0.000163 -0.000242 -0.000356 -0.000519 -0.000748 -0.001069 -0.001512 -0.002114 -0.002921 -0.003985 -0.005363 -0.007108 -0.009261 -0.011828 -0.014753 -0.017864 -0.020808 -0.022938 -0.023164 -0.019738 -0.009961 0.010226 0.046774 0.108244 0.206729 0.359045 0.588235 0.925437 1.412196 2.103248 3.069852 4.403707 6.221473 8.669920 11.931670 16.231453 21.842741 29.094492 38.377623 50.150621 64.943561 83.359674 106.073778 133.827455 167.422168 207.713529 255.612442 312.100594 378.266511 455.360895 544.852732 648.439112 767.924671 904.855465 1059.807423 1231.388497 1415.502106 1606.391864 1801.686607 2010.926918 2259.132989 2575.730598 2976.707368 3459.316986 4010.264661 4618.326055 5276.472196 5944.971537 6580.260200 7174.927371 7749.813093 8317.914390 8842.384914 9303.730125 9701.520787 10041.604361 10335.296521 10638.530885 11062.985323 11604.648101 12179.753959 12602.100268 12687.585373 12687.585373 12687.585373 -0.000000 -0.000000 -0.000000 -0.000000 -0.000000 -0.000000 -0.000000 -0.000000 -0.000000 -0.000000 -0.000000 -0.000000 -0.000000 -0.000000 -0.000001 -0.000001 -0.000002 -0.000003 -0.000005 -0.000008 -0.000013 -0.000020 -0.000031 -0.000047 -0.000072 -0.000109 -0.000163 -0.000242 -0.000356 -0.000519 -0.000748 -0.001069 -0.001512 -0.002114 -0.002921 -0.003985 -0.005363 -0.007108 -0.009261 -0.011828 -0.014753 -0.017864 -0.020808 -0.022938 -0.023164 -0.019738 -0.009961 0.010226 0.046774 0.108244 0.206729 0.359045 0.588235 0.925437 1.412196 2.103248 3.069852 4.403707 6.221473 8.669920 11.931670 16.231453 21.842741 29.094492 38.377623 50.150621 64.943561 83.359674 106.073778 133.827455 167.422168 207.713529 255.612442 312.100594 378.266511 455.360895 544.852732 648.439112 767.924671 904.855465 1059.807423 1231.388497 1415.502106 1606.391864 1801.686607 2010.926918 2259.132989 2575.730598 2976.707368 3459.316986 4010.264661 4618.326055 5276.472196 5944.971537 6580.260200 7174.927371 7749.813093 8317.914390 8842.384914 9303.730125 9701.520787 10041.604361 10335.296521 10638.530885 11062.985323 11604.648101 12179.753959 12602.100268 12687.585373 12687.585373 12687.585373 -0.000000 -0.000000 -0.000000 -0.000000 -0.000000 -0.000000 -0.000000 -0.000000 -0.000000 -0.000000 -0.000000 -0.000000 -0.000000 -0.000000 -0.000001 -0.000001 -0.000002 -0.000003 -0.000005 -0.000008 -0.000013 -0.000020 -0.000031 -0.000047 -0.000072 -0.000109 -0.000163 -0.000242 -0.000356 -0.000519 -0.000748 -0.001069 -0.001512 -0.002114 -0.002921 -0.003985 -0.005363 -0.007108 -0.009261 -0.011828 -0.014753 -0.017864 -0.020808 -0.022938 -0.023164 -0.019738 -0.009961 0.010226 0.046774 0.108244 0.206729 0.359045 0.588235 0.925437 1.412196 2.103248 3.069852 4.403707 6.221473 8.669920 11.931670 16.231453 21.842741 29.094492 38.377623 50.150621 64.943561 83.359674 106.073778 133.827455 167.422168 207.713529 255.612442 312.100594 378.266511 455.360895 544.852732 648.439112 767.924671 904.855465 1059.807423 1231.388497 1415.502106 1606.391864 1801.686607 2010.926918 2259.132989 2575.730598 2976.707368 3459.316986 4010.264661 4618.326055 5276.472196 5944.971537 6580.260200 7174.927371 7749.813093 8317.914390 8842.384914 9303.730125 9701.520787 10041.604361 10335.296521 10638.530885 11062.985323 11604.648101 12179.753959 12602.100268 12687.585373 12687.585373 12687.585373 -1348.332957 -1547.671209 -1902.267752 -2391.450083 -1379.153760 99.541643 -568.133726 -1406.703592 -18.022729 1344.539991 375.035408 -763.430850 -1696.129191 -57.179620 1485.060366 -14.386241 -1837.191413 -858.899146 1793.162983 191.583254 -1860.639977 407.234004 2331.023697 884.778587 -506.354504 -1954.398058 -233.057132 2271.522370 1140.304076 -360.237196 -1968.403468 -126.732086 2671.049804 1625.977095 44.093361 -603.216766 2779.538468 5614.481622 5372.127523 5683.041126 9205.149301 5527.201624 7994.047477 9521.776567 10875.248841 9934.504797 10990.765047 10208.093177 12874.285473 13340.590168 10406.780360 12404.864409 13769.949700 13849.649669 13849.649669 13849.649669 -951.897907 151.579980 -342.530246 11507.489454 12794.914950 14059.631094 11422.371329 14546.335546 12573.551836 13701.371644 16524.737040 12590.913366 14938.474898 10456.407672 11567.883310 13156.061238 8101.928355 10719.892355 10165.792340 8962.725266 11058.142213 12450.602146 10062.350210 10798.774311 11031.645329 10127.027079 8937.410905 14811.608651 11101.487387 10073.284827 11939.389508 16468.235636 12873.841168 9329.328285 11980.862033 12777.194184 10133.451776 10624.359197 11552.549938 10226.451930 12141.393248 14352.277115 11786.472022 11732.996194 10138.763753 14151.278811 12556.920437 12554.331925 10963.165783 10491.349944 12431.736394 13077.375158 13959.269880 14037.477685 14037.477685 14037.477685 141.704325 110.749730 1810.337975 3442.118132 9836.578015 10621.469413 13477.463002 11941.264069 13122.601393 12180.828625 9430.627243 11068.532420 9626.993567 8252.425810 10861.061892 10847.912797 7338.321858 7015.868022 10905.299003 8891.089400 9780.488100 17994.812234 10287.216823 13290.154096 11527.526452 10418.330387 10663.451112 12959.741495 11084.588848 11154.831227 10145.322309 10921.728047 9905.867597 11042.342387 11473.990917 11163.639251 10585.218214 10200.730954 11444.901535 11232.448875 12491.056607 10885.056235 10569.370386 10869.640748 10930.116530 11573.174383 11033.306785 12124.426736 12484.941993 15179.214041 9560.465322 13650.304268 13907.913298 14079.756906 14079.756906 14079.756906 -273.114023 -603.291821 5846.403729 4751.538852 6775.908242 3375.464730 9165.197911 8398.464472 14084.567090 12126.216988 8181.968010 9890.021745 10185.922659 7692.247102 11658.060595 9104.437801 11561.112067 9861.320426 8320.631015 8924.081059 11800.226948 7717.653149 10909.745657 11860.350117 11939.866045 8750.239085 11746.167486 8050.653442 11147.921153 11998.206754 12229.081899 12159.641578 11320.747230 10136.343952 8101.393881 11231.087594 9353.550768 11098.668054 10792.867023 11073.194949 10221.069967 10891.715853 11669.896080 12831.237060 13006.090212 13070.635023 13444.072855 13794.521621 12059.745106 13374.614218 12096.910083 701.459911 11987.808195 13831.046528 13831.046528 13831.046528 1203.008265 1165.026778 -1935.402944 2419.211445 3468.445281 7096.957243 7576.476071 8806.008015 5029.943690 10047.251265 3573.560775 4602.143137 5951.762799 11581.875698 8718.344997 12283.469630 5130.286941 6585.332064 8282.877766 6203.842392 5242.352369 6116.475636 9591.561398 7