<VTKFile type="PolyData">
<PolyData>
<Piece NumberOfPoints="8632" NumberOfVerts="8632" NumberOfLines="0" NumberOfStrips="0" NumberOfPolys="0">
<PointData>
<DataArray type="Float64" Name="Pressure" format="ascii">
 -0.000259 -0.000259 -0.000259 -0.000282 -0.000554 -0.001328 -0.002413 -0.004042 -0.006518 -0.010290 -0.016026 -0.024694 -0.037698 -0.057041 -0.085561 -0.127236 -0.187583 -0.274168 -0.397257 -0.570623 -0.812529 -1.146913 -1.604779 -2.225785 -3.060028 -4.169970 -5.632447 -7.540668 -10.006063 -13.159821 -17.153920 -22.161427 -28.375835 -36.009235 -45.289156 -56.454007 -69.747222 -85.410401 -103.676019 -124.760584 -148.859427 -176.144535 -206.766923 -240.864786 -278.578034 -320.068592 -365.543967 -415.278958 -469.626778 -529.005470 -593.835660 -664.384357 -740.418938 -820.467776 -900.271983 -970.591640 -1016.230049 -1014.679919 -933.969066 -772.534791 -606.582759 -482.968646 -355.177886 -208.519539 -123.397622 -126.810476 -146.161592 -106.480084 -20.542877 25.275639 31.969525 82.681086 188.813953 269.214976 325.833287 428.789620 554.677545 630.228407 681.643341 801.768958 1048.819261 1375.512515 1708.855057 2112.121657 2704.220965 3458.352288 4186.958592 4815.747833 5422.577933 6061.052518 6725.571590 7396.826146 8103.524273 8841.261018 9559.560622 10226.783237 10863.703102 11465.484397 11983.338688 12422.254715 12822.821051 13205.820767 13569.695840 13910.223236 14208.485368 14440.261089 14631.605404 14770.327583 14799.363488 14799.363488 14799.363488 -0.000259 -0.000259 -0.000259 -0.000282 -0.000554 -0.001328 -0.002413 -0.004042 -0.006518 -0.010290 -0.016026 -0.024694 -0.037698 -0.057041 -0.085561 -0.127236 -0.187583 -0.274168 -0.397257 -0.570623 -0.812529 -1.146913 -1.604779 -2.225785 -3.060028 -4.169970 -5.632447 -7.540668 -10.006063 -13.159821 -17.153920 -22.161427 -28.375835 -36.009235 -45.289156 -56.454007 -69.747222 -85.410401 -103.676019 -124.760584 -148.859427 -176.144535 -206.766923 -240.864786 -278.578034 -320.068592 -365.543967 -415.278958 -469.626778 -529.005470 -593.835660 -664.384357 -740.418938 -820.467776 -900.271983 -970.591640 -1016.230049 -1014.679919 -933.969066 -772.534791 -606.582759 -482.968646 -355.177886 -208.519539 -123.397622 -126.810476 -146.161592 -106.480084 -20.542877 25.275639 31.969525 82.681086 188.813953 269.214976 325.833287 428.789620 554.677545 630.228407 681.643341 801.768958 1048.819261 1375.512515 1708.855057 2112.121657 2704.220965 3458.352288 4186.958592 4815.747833 5422.577933 6061.052518 6725.571590 7396.826146 8103.524273 8841.261018 9559.560622 10226.783237 10863.703102 11465.484397 11983.338688 12422.254715 12822.821051 13205.820767 13569.695840 13910.223236 14208.485368 14440.261089 14631.605404 14770.327583 14799.363488 14799.363488 14799.363488 -0.000259 -0.000259 -0.000259 -0.000282 -0.000554 -0.001328 -0.002413 -0.004042 -0.006518 -0.010290 -0.016026 -0.024694 -0.037698 -0.057041 -0.085561 -0.127236 -0.187583 -0.274168 -0.397257 -0.570623 -0.812529 -1.146913 -1.604779 -2.225785 -3.060028 -4.169970 -5.632447 -7.540668 -10.006063 -13.159821 -17.153920 -22.161427 -28.375835 -36.009235 -45.289156 -56.454007 -69.747222 -85.410401 -103.676019 -124.760584 -148.859427 -176.144535 -206.766923 -240.864786 -278.578034 -320.068592 -365.543967 -415.278958 -469.626778 -529.005470 -593.835660 -664.384357 -740.418938 -820.467776 -900.271983 -970.591640 -1016.230049 -1014.679919 -933.969066 -772.534791 -606.582759 -482.968646 -355.177886 -208.519539 -123.397622 -126.810476 -146.161592 -106.480084 -20.542877 25.275639 31.969525 82.681086 188.813953 269.214976 325.833287 428.789620 554.677545 630.228407 681.643341 801.768958 1048.819261 1375.512515 1708.855057 2112.121657 2704.220965 3458.352288 4186.958592 4815.747833 5422.577933 6061.052518 6725.571590 7396.826146 8103.524273 8841.261018 9559.560622 10226.783237 10863.703102 11465.484397 11983.338688 12422.254715 12822.821051 13205.820767 13569.695840 13910.223236 14208.485368 14440.261089 14631.605404 14770.327583 14799.363488 14799.363488 14799.363488 -0.000256 -0.000256 -0.000256 -0.000278 -0.000546 -0.001313 -0.002395 -0.004025 -0.006498 -0.010263 -0.015986 -0.024635 -0.037612 -0.056916 -0.085381 -0.126981 -0.187223 -0.273666 -0.396565 -0.569677 -0.811250 -1.145203 -1.602516 -2.222822 -3.056191 -4.165054 -5.626222 -7.532874 -9.996419 -13.148030 -17.139678 -22.144440 -28.355833 -35.985993 -45.262511 -56.423880 -69.713633 -85.373475 -103.635984 -124.717747 -148.814135 -176.097119 -206.717625 -240.813703 -278.525123 -320.013846 -365.488007 -415.224613 -469.583013 -528.996978 -593.926283 -664.733871 -741.416375 -823.016918 -905.994123 -981.707417 -1035.226530 -1044.132143 -964.845991 -765.378874 -587.351953 -486.689961 -369.856598 -184.841412 -94.035991 -122.464525 -169.357954 -126.974009 -7.111632 37.190524 11.906245 56.554354 193.807799 273.475645 301.574561 413.026804 567.517202 632.881511 647.724395 738.494695 995.082856 1346.068473 1652.271264 2000.782057 2582.298487 3395.672751 4161.364701 4784.371626 5393.950975 6036.516989 6705.687793 7361.628343 8081.093205 8857.827254 9618.936440 10286.273577 10912.204429 11530.154869 12043.560423 12464.810749 12868.188925 13282.209171 13673.379113 14026.022715 14327.664284 14539.781857 14682.961897 14784.316661 14807.595550 14807.595550 14807.595550 -0.000220 -0.000220 -0.000220 -0.000238 -0.000460 -0.001112 -0.002171 -0.003845 -0.006299 -0.009990 -0.015587 -0.024049 -0.036753 -0.055671 -0.083593 -0.124436 -0.183640 -0.268670 -0.389669 -0.560256 -0.798512 -1.128160 -1.579953 -2.193273 -3.017911 -4.116014 -5.564100 -7.455081 -9.900136 -13.030281 -16.997433 -21.974747 -28.155987 -35.753725 -44.996194 -56.122720 -69.377822 -85.004270 -103.235662 -124.289398 -148.361260 -175.623041 -206.224795 -240.303101 -277.996265 -319.466466 -364.927794 -414.678550 -469.137533 -528.891303 -594.780752 -668.109174 -751.173420 -848.387685 -968.794107 -1107.731123 -1248.221092 -1401.356460 -1445.995598 -698.412044 -210.169457 -576.624399 -694.637933 149.623073 421.488337 -76.869823 -528.980974 -539.640384 311.357591 316.055351 -306.234665 -457.601403 418.919814 460.065147 -142.202558 111.089497 900.981014 736.942506 249.832610 -114.344816 261.995398 1224.932042 1112.006190 658.005599 881.045084 2690.888000 3961.868797 4374.158286 5203.881810 5970.778967 6749.687708 7123.638886 7998.844910 9173.560314 10648.104329 11179.876764 11342.981354 12240.886334 12591.501929 12641.304020 13048.746464 14063.715637 15039.714663 15340.199623 15725.549609 15969.758858 15553.728806 15017.572970 14918.058005 14918.058005 14918.058005 -0.000175 -0.000175 -0.000175 -0.000188 -0.000338 -0.000772 -0.001718 -0.003587 -0.006065 -0.009683 -0.015143 -0.023395 -0.035796 -0.054281 -0.081594 -0.121590 -0.179627 -0.263069 -0.381931 -0.549675 -0.784193 -1.108984 -1.554546 -2.159969 -2.974732 -4.060650 -5.493911 -7.367116 -9.791181 -12.896937 -16.836232 -21.782306 -27.929199 -35.489979 -44.693606 -55.780361 -68.995897 -84.584217 -102.780105 -123.801928 -147.845988 -175.083950 -205.664983 -239.724224 -277.398840 -318.852575 -364.309666 -414.101196 -468.735211 -529.026436 -596.386511 -673.542560 -766.383229 -888.775868 -1076.429119 -1285.742484 -1508.693119 -1897.155924 -2238.834013 -787.240530 324.426722 -747.878066 -1298.280183 584.022872 1250.959637 12.757211 -1213.921856 -1410.367567 938.201131 989.588215 -1042.345244 -1667.931721 1098.437103 1138.017644 -1296.421994 -536.600348 1990.966600 1165.533960 -252.489312 -1748.749482 -1096.151400 1869.656371 907.822042 -1359.635829 -2666.471632 1562.962398 3543.221399 3067.925954 4999.595372 7046.797085 8695.715336 7142.945090 9307.159888 9419.652516 13657.497131 14001.781913 10712.189156 13106.740945 13314.667343 11570.138493 11606.512296 15343.123933 18419.607396 17351.425771 16632.066874 19281.120692 19834.265428 15771.819093 15126.127549 15126.127549 15126.127549 -0.000170 -0.000170 -0.000170 -0.000182 -0.000323 -0.000720 -0.000134 -0.000134 -0.000134 -0.000142 -0.000229 -0.000428 -0.000089 -0.000089 -0.000089 -0.000092 -0.000125 -0.000182 -0.000056 -0.000056 -0.000056 -0.000057 -0.000068 -0.000086 -0.000034 -0.000034 -0.000034 -0.000034 -0.000038 -0.000043 -0.000020 -0.000020 -0.000020 -0.000020 -0.000021 -0.000023 -0.000012 -0.000012 -0.000012 -0.000012 -0.000012 -0.000012 -0.000007 -0.000007 -0.000007 -0.000007 -0.000007 -0.000007 -0.000004 -0.000004 -0.000004 -0.000004 -0.000004 -0.000004 -0.000002 -0.000002 -0.000002 -0.000002 -0.000002 -0.000002 -0.000001 -0.000001 -0.000001 -0.000001 -0.000001 -0.000001 -0.000001 -0.000001 -0.000001 -0.000001 -0.000001 -0.000001 -0.000000 -0.000000 -0.000000 -0.000000 -0.000000 -0.000000 -0.000000 -0.000000 -0.000000 -0.000000 -0.000000 -0.000000 -0.000000 -0.000000 -0.000000 -0.000000 -0.000000 -0.000000 -0.000000 -0.000000 -0.000000 -0.000000 -0.000000 -0.000000 -0.000000 -0.000000 -0.000000 -0.000000 -0.000000 -0.000000 -0.000000 -0.000000 -0.000000 -0.000000 -0.000000 -0.000000 -0.000000 -0.000000 -0.000000 -0.000000 -0.000000 -0.000000 -0.000000 -0.000000 -0.000000 -0.000000 -0.000000 -0.000000 -0.000000 -0.000000 -0.000000 -0.000000 -0.000000 -0.000000 -0.000000 -0.000000 -0.000000 -0.000000 0.000000 -0.000000 0.000000 0.000000 0.000000 0.000000 0.000000 0.000000 0.000000 0.000000 0.000000 0.000000 0.000000 0.000000 0.000000 0.000000 0.000000 0.000000 0.000000 0.000000 0.000000 0.000000 0.000000 -0.000000 0.000000 0.000000 0.000000 0.000000 0.000000 -0.000000 0.000000 0.000000 0.000000 0.000000 0.000000 -0.000000 0.000000 0.000000 0.000000 0.000000 0.000000 -0.000000 0.000000 0.000000 0.000000 0.000000 0.000000 -0.000000 0.000000 0.000000 0.000000 0.000000 0.000000 -0.000000 0.000000 0.000000 0.000000 0.000000 0.000000 -0.000000 0.000000 0.000000 0.000000 0.000000 0.000000 -0.000000 0.000000 0.000000 0.000000 0.000000 0.000000 -0.000000 0.000000 0.000000 0.000000 0.000000 0.000000 -0.000000 0.000000 0.000000 0.000000 0.000000 0.000000 -0.000000 0.000000 0.000000 0.000000 0.000000 0.000000 -0.000000 0.000000 0.000000 0.000000 0.000000 0.000000 -0.000000 0.000000 0.000000 0.000000 0.000000 0.000000 0.000000 0.000000 0.000000 -0.000000 -0.000000 -0.000000 0.000000 -0.000000 0.000000 -0.000000 -0.000000 -0.000000 -0.000000 -0.000000 -0.000000 -0.000000 -0.000000 -0.000000 -0.000000 -0.000000 -0.000000 -0.000000 -0.000000 -0.000000 -0.000000 -0.000000 -0.000000 -0.000000 -0.000000 -0.000000 -0.000000 -0.000000 -0.000000 -0.000000 -0.000000 -0.000000 -0.000000 -0.000000 -0.000000 -0.000000 -0.000000 -0.000000 -0.000000 -0.000000 -0.000000 -0.000000 -0.000000 -0.000000 -0.000000 -0.000000 -0.000000 -0.000000 -0.000000 -0.000000 -0.000000 -0.000000 -0.000000 -0.000000 -0.000000 -0.000000 -0.000000 -0.000000 -0.000000 -0.000000 -0.000000 -0.000000 -0.000000 -0.000000 -0.000000 -0.000000 -0.000000 -0.000000 -0.000000 -0.000000 -0.000000 -0.000000 -0.000000 -0.000000 -0.000000 -0.000000 -0.000000 -0.000000 -0.000000 -0.000000 -0.000000 -0.000000 -0.000000 -0.000000 -0.000000 -0.000000 -0.000000 -0.000000 -0.000000 -0.000000 -0.000000 -0.000000 -0.000000 -0.000000 -0.000000 -0.000000 -0.000000 -0.000000 -0.000000 -0.000000 -0.000000 -0.000000 -0.000000 -0.000000 -0.000000 -0.000000 -0.000000 -0.000000 -0.000000 -0.000000 -0.000000 -0.000000 -0.000000 -0.000000 -0.000000 -0.000000 -0.000000 -0.000000 -0.000000 -0.000000 -0.000000 -0.000000 -0.000000 -0.000000 -0.000000 -0.000000 -0.000000 -0.000000 -0.000000 -0.000000 -0.000000 -0.000000 -0.000000 -0.000000 -0.000000 -0.000000 -0.000000 -0.000000 -0.000000 -0.000000 -0.000000 -0.000000 -0.000000 -0.000000 -0.000000 -0.000000 -0.000000 -0.000000 -0.000000 -0.000000 -0.000000 -0.000000 -0.000000 -0.000000 -0.000000 -0.000000 -0.000000 -0.000000 -0.000000 -0.000000 -0.000000 -0.000000 -0.000000 -0.000000 -0.000000 -0.000000 -0.000000 -0.000000 -0.000000 -0.000000 -0.000000 -0.000000 -0.000000 -0.000000 -0.000000 -0.000000 -0.000000 -0.000000 -0.000000 -0.000000 -0.000000 -0.000000 -0.000000 -0.000000 -0.000000 -0.000000 -0.000000 -0.000000 -0.000000 -0.000000 -0.000000 -0.000000 -0.000000 -0.000000 -0.000000 -0.000000 -0.000000 -0.000000 -0.000000 -0.000000 -0.000000 -0.000000 -0.000000 -0.000000 -0.000000 -0.000000 -0.000000 -0.000000 -0.000000 -0.000000 -0.000000 -0.000000 -0.000000 -0.000000 -0.000000 -0.000000 -0.000000 -0.000000 -0.000000 -0.000000 -0.000000 -0.000000 -0.000000 -0.000000 -0.000000 -0.000000 -0.000000 -0.000000 -0.000000 -0.000000 -0.000000 -0.000000 -0.000000 -0.000000 -0.000000 -0.000000 -0.000000 -0.000000 -0.000000 -0.000000 -0.000000 -0.000000 -0.000000 -0.000000 -0.000000 -0.000000 -0.000000 -0.000000 -0.000000 -0.000000 -0.000000 -0.000000 -0.000000 -0.000000 -0.000000 -0.000000 -0.000000 -0.000000 -0.000000 -0.000000 -0.000000 -0.000000 -0.000000 -0.000000 -0.000000 -0.000000 -0.000000 -0.000000 -0.000000 -0.000000 -0.000000 -0.000000 -0.000000 -0.000000 -0.000000 -0.000000 -0.000000 -0.000000 -0.000000 -0.000000 -0.000000 -0.000000 -0.000000 -0.000000 -0.000000 -0.000000 -0.000000 -0.000000 -0.000000 -0.000000 -0.000000 -0.000000 -0.000000 -0.000000 -0.000000 -0.000000 -0.000000 -0.000000 -0.000000 -0.000000 -0.000000 -0.000000 -0.000000 -0.000000 -0.000000 -0.000000 -0.000000 -0.000000 -0.000000 -0.000000 -0.000000 -0.000000 -0.000000 -0.000000 -0.000000 -0.000000 -0.000000 -0.000000 -0.000000 -0.000000 -0.000000 -0.000000 -0.000000 -0.000000 -0.000000 -0.000000 -0.000000 -0.000000 -0.000000 -0.000000 -0.000000 -0.000000 -0.000000 -0.000000 -0.000000 -0.000000 -0.000000 -0.000000 -0.000000 -0.000000 -0.000000 -0.000000 -0.000000 -0.000000 -0.000000 -0.000000 -0.000000 -0.000000 -0.000000 -0.000000 -0.000000 -0.000000 -0.000000 -0.000000 -0.000000 -0.000000 -0.000000 -0.000000 -0.000000 -0.000000 -0.000000 -0.000000 -0.000000 -0.000000 -0.000000 -0.000000 -0.000000 -0.000000 -0.000000 -0.000000 -0.000000 -0.000000 -0.000000 -0.000000 -0.000000 -0.000000 -0.000000 -0.000000 -0.000000 -0.000000 -0.000000 -0.000000 -0.000000 -0.000000 -0.000000 -0.000000 -0.000000 -0.000000 -0.000000 -0.000000 -0.000000 -0.000000 -0.000000 -0.000000 -0.000000 -0.000000 -0.000000 -0.000000 -0.000000 -0.000000 -0.000000 -0.000000 -0.000000 -0.000000 -0.000000 -0.000000 -0.000000 -0.000000 -0.000000 -0.000000 -0.000000 -0.000000 -0.000000 -0.000000 -0.000000 -0.000000 -0.000000 -0.000000 -0.000000 -0.000000 -0.000000 -0.000000 -0.000000 -0.000000 -0.000000 -0.000000 -0.000000 -0.000000 -0.000000 -0.000000 -0.000000 -0.000000 -0.000000 -0.000000 -0.000000 -0.000000 -0.000000 -0.000000 -0.000000 -0.000000 -0.000000 -0.000000 -0.000000 -0.000000 -0.000000 -0.000000 -0.000000 -0.000000 -0.000000 -0.000000 -0.000000 -0.000000 -0.000000 -0.000000 -0.000000 -0.000000 -0.000000 -0.000000 -0.000000 -0.000000 -0.000000 -0.000000 -0.000000 -0.000000 -0.000000 -0.000000 -0.000000 -0.000000 -0.000000 -0.000000 -0.000000 -0.000000 -0.000000 -0.000000 -0.000000 -0.000000 -0.000000 -0.000000 -0.000000 -0.000000 -0.000000 -0.000000 -0.000000 -0.000000 -0.000000 -0.000000 -0.000000 -0.000000 -0.000000 -0.000000 -0.000000 -0.000000 -0.000000 -0.000000 -0.000000 -0.000000 -0.000000 -0.000000 -0.000000 -0.000000 -0.000000 -0.000000 -0.000000 -0.000000 -0.000000 -0.000000 -0.000000 -0.000000 -0.000000 -0.000000 -0.000000 -0.000000 -0.000000 -0.000000 -0.000000 -0.000000 -0.000000 -0.000000 -0.000000 -0.000000 -0.000000 -0.000000 -0.000000 -0.000000 -0.000000 -0.000000 -0.000000 -0.000000 -0.000000 -0.000000 -0.000000 -0.000000 -0.000000 -0.000000 -0.000000 -0.000000 -0.000000 -0.000000 -0.000000 -0.000000 -0.000000 -0.000000 -0.000000 -0.000000 -0.000000 -0.000000 -0.000000 -0.000000 -0.000000 -0.000000 -0.000000 -0.000000 -0.000000 -0.000000 -0.000000 -0.000000 -0.000000 -0.000000 -0.000000 -0.000000 -0.000000 -0.000000 -0.000000 -0.000000 -0.000000 -0.000000 -0.000000 -0.000000 -0.000000 -0.000000 -0.000000 -0.000000 -0.000000 -0.000000 -0.000000 -0.000000 -0.000000 -0.000000 -0.000000 -0.000000 -0.000000 -0.000000 -0.000000 -0.000000 -0.000000 -0.000000 -0.000000 -0.000000 -0.000000 -0.000000 -0.000000 -0.000000 -0.000000 -0.000000 -0.000000 -0.000000 -0.000000 -0.000000 -0.000000 -0.000000 -0.000000 -0.000000 -0.000000 -0.000000 -0.000000 -0.000000 -0.000000 -0.000000 -0.000000 -0.000000 -0.000000 -0.000000 -0.000000 -0.000000 -0.000000 -0.000000 -0.000000 -0.000000 -0.000000 -0.000000 -0.000000 -0.000000 -0.000000 -0.000000 -0.000000 -0.000000 -0.000000 -0.000000 -0.000000 -0.000000 -0.000000 -0.000000 -0.000000 -0.000000 -0.000000 -0.000000 -0.000000 -0.000000 -0.000000 -0.000000 -0.000000 -0.000000 -0.000000 -0.000000 -0.000000 -0.000000 -0.000000 -0.000000 -0.000000 -0.000000 -0.000000 -0.000000 -0.000000 -0.000000 -0.000000 -0.000000 -0.000000 -0.000000 -0.000000 -0.000000 -0.000000 -0.000000 -0.000000 -0.000000 -0.000000 -0.000000 -0.000000 -0.000000 -0.000000 -0.000000 -0.000000 -0.000000 -0.000000 -0.000000 -0.000000 -0.000000 -0.000000 -0.000000 -0.000000 -0.000000 -0.000000 -0.000000 -0.000000 -0.000000 -0.000000 -0.000000 -0.000000 -0.000000 -0.000000 -0.000000 -0.000000 -0.000000 -0.000000 -0.000000 -0.000000 -0.000000 -0.000000 -0.000000 -0.000000 -0.000000 -0.000000 -0.000000 -0.000000 -0.000000 -0.000000 -0.000000 -0.000000 -0.000000 -0.000000 -0.000000 -0.000000 -0.000000 -0.000000 -0.000000 -0.000000 -0.000000 -0.000000 -0.000000 -0.000000 -0.000000 -0.000000 -0.000000 -0.000000 -0.000000 -0.000000 -0.000000 -0.000000 -0.000000 -0.000000 0.000000 -0.000000 -0.000000 -0.000000 -0.000000 -0.000000 -0.000000 -0.000000 -0.000000 -0.000000 -0.000000 -0.000000 -0.000000 -0.000000 -0.000000 -0.000000 -0.000000 -0.000000 -0.000000 -0.000000 -0.000000 -0.000000 -0.000000 -0.000000 -0.000000 -0.000000 -0.000000 -0.000000 -0.000000 -0.000000 -0.000000 -0.000000 -0.000000 -0.000000 -0.000000 -0.000000 -0.000000 -0.000000 -0.000000 -0.000000 -0.000000 -0.000000 -0.000000 -0.000000 -0.000000 -0.000000 -0.000000 -0.000000 -0.000000 -0.000000 -0.000000 -0.000000 -0.000000 -0.000000 -0.000000 -0.000000 -0.000000 -0.000000 -0.000000 -0.000000 -0.000000 -0.000000 -0.000000 -0.000000 -0.000000 -0.000000 -0.000000 -0.000000 -0.000000 -0.000000 -0.000000 -0.000000 -0.000000 -0.000000 -0.000000 -0.000000 -0.000000 -0.000000 -0.000000 -0.000000 -0.000000 -0.000000 -0.000000 -0.000000 -0.000000 -0.000000 -0.000000 -0.000000 -0.000000 -0.000000 -0.000000 -0.000000 -0.000000 -0.000000 -0.000000 -0.000000 -0.000000 -0.000000 -0.000000 -0.000000 -0.000000 -0.000000 -0.000000 -0.000000 -0.000000 -0.000000 -0.000000 -0.000000 -0.000000 -0.000000 -0.000000 -0.000000 -0.000000 -0.000000 -0.000000 -0.000000 -0.000000 -0.000000 -0.000000 -0.000000 -0.000000 -0.000000 -0.000000 -0.000000 -0.000000 -0.000000 -0.000000 -0.000000 -0.000000 -0.000000 -0.000000 -0.000000 -0.000000 -0.000000 -0.000000 -0.000000 -0.000000 -0.000000 -0.000000 -0.000000 -0.000000 -0.000000 -0.000000 -0.000000 -0.000000 -0.000000 -0.000000 -0.000000 -0.000000 -0.000000 -0.000000 -0.000000 -0.000000 -0.000000 -0.000000 -0.000000 -0.000000 -0.000000 -0.000000 -0.000000 -0.000000 -0.000000 -0.000000 -0.000000 -0.000000 -0.000000 -0.000000 -0.000000 -0.000000 -0.000000 -0.000000 -0.000000 -0.000000 -0.000000 -0.000000 -0.000000 -0.000000 -0.000000 -0.000000 -0.000000 -0.000000 -0.000000 -0.000000 -0.000000 -0.000000 -0.000000 -0.000000 -0.000000 -0.000000 -0.000000 -0.000000 -0.000000 -0.000000 -0.000000 -0.000000 -0.000000 -0.000000 -0.000000 -0.000000 -0.000000 -0.000000 -0.000000 -0.000000 -0.000000 -0.000000 -0.000000 -0.000000 -0.000000 -0.000000 -0.000000 -0.000000 -0.000000 -0.000000 -0.000000 -0.000000 -0.000000 -0.000000 -0.000000 -0.000000 -0.000000 -0.000000 0.000000 -0.000000 0.000000 -0.000000 -0.000000 -0.000000 -0.000000 0.000000 0.000000 -0.000000 -0.000000 -0.000000 0.000000 -0.000000 0.000000 0.000000 0.000000 0.000000 0.000000 -0.000000 -0.000000 -0.000000 -0.000000 -0.000000 -0.000000 -0.000000 -0.000000 -0.000000 -0.000000 -0.000000 -0.000000 -0.000000 -0.000000 -0.000000 -0.000000 -0.000000 -0.000001 -0.000001 -0.000002 -0.000003 -0.000005 -0.000009 -0.000015 -0.000024 -0.000040 -0.000065 -0.000105 -0.000168 -0.000266 -0.000416 -0.000645 -0.000988 -0.001498 -0.002245 -0.003328 -0.004875 -0.007055 -0.010084 -0.014225 -0.019788 -0.027120 -0.036571 -0.048437 -0.062855 -0.079641 -0.098023 -0.116252 -0.131031 -0.136700 -0.124107 -0.079067 0.019688 0.203212 0.515825 1.019539 1.799580 2.971168 4.687665 7.150127 10.618145 15.421655 21.973130 30.779265 42.451154 57.712120 77.403099 102.487032 134.056032 173.347823 221.779988 281.009588 353.016511 440.177706 545.210273 670.626181 816.758010 976.031625 1118.172645 1157.003769 877.500191 -69.500198 -857.708413 -27.259393 1094.202286 1601.591503 1830.624538 2705.400935 2872.605207 4025.447611 4430.718231 3779.393626 4678.544917 5002.185309 5463.456835 5830.738644 6067.228868 6652.448832 8404.174916 6863.208075 7613.134261 9091.752762 10519.207428 12139.176749 12445.453520 12445.453520 12445.453520 0.000000 0.000000 0.000000 0.000000 -0.000000 -0.000000 -0.000000 -0.000000 -0.000000 -0.000000 -0.000000 -0.000000 -0.000000 -0.000000 -0.000000 -0.000000 -0.000000 -0.000000 -0.000000 -0.000000 -0.000000 -0.000001 -0.000001 -0.000002 -0.000003 -0.000005 -0.000009 -0.000015 -0.000025 -0.000041 -0.000067 -0.000109 -0.000173 -0.000274 -0.000428 -0.000661 -0.001012 -0.001532 -0.002294 -0.003395 -0.004967 -0.007179 -0.010247 -0.014434 -0.020049 -0.027434 -0.036931 -0.048820 -0.063217 -0.079898 -0.098034 -0.115795 -0.129765 -0.134118 -0.119477 -0.071360 0.031898 0.221861 0.543499 1.059633 1.856487 3.050482 4.796389 7.296870 10.813265 15.677324 22.303259 31.199269 42.977580 58.362223 78.194577 103.438199 135.186717 174.680997 223.343425 282.835623 355.136735 442.612490 547.977504 673.897491 821.646800 987.587620 1155.286160 1281.847587 1295.012663 1186.574867 1144.149530 1483.705961 1881.986072 2213.265548 2560.244802 3203.251847 3826.350841 4628.480852 4890.447131 5042.073395 5592.052056 6210.735405 6883.729076 7244.636983 7247.932905 7696.416911 8316.838952 7407.110588 7707.985189 8988.273443 10628.762607 12030.172578 12280.446075 12280.446075 12280.446075 0.000000 0.000000 0.000000 0.000000 0.000000 0.000000 0.000000 0.000000 -0.000000 0.000000 -0.000000 -0.000000 -0.000000 -0.000000 -0.000000 -0.000000 -0.000000 -0.000000 -0.000000 -0.000000 -0.000000 -0.000001 -0.000001 -0.000002 -0.000003 -0.000006 -0.000009 -0.000016 -0.000026 -0.000043 -0.000070 -0.000112 -0.000179 -0.000282 -0.000441 -0.000681 -0.001040 -0.001572 -0.002350 -0.003474 -0.005074 -0.007322 -0.010435 -0.014674 -0.020348 -0.027792 -0.037340 -0.049253 -0.063620 -0.080172 -0.098015 -0.115223 -0.128241 -0.131054 -0.114026 -0.062327 0.046163 0.243595 0.575685 1.106187 1.922470 3.142330 4.922151 7.466423 11.038482 15.972132 22.683547 31.682630 43.582892 59.109199 79.103514 104.530265 136.485083 176.212862 225.142204 284.941223 357.590463 445.445740 551.216651 677.706146 827.056424 999.211941 1189.620522 1387.725157 1582.062615 1778.554601 2018.246349 2343.766125 2743.112988 3193.374182 3705.757796 4292.538547 4929.974541 5581.452797 6184.739841 6767.275709 7385.181471 8013.721836 8593.366903 9056.807047 9421.315763 9756.457761 10016.519074 10064.581716 10311.246382 10822.671508 11545.823908 12139.395376 12257.039939 12257.039939 12257.039939 -0.000000 -0.000000 -0.000000 -0.000000 -0.000000 0.000000 0.000000 -0.000000 -0.000000 -0.000000 -0.000000 -0.000000 -0.000000 -0.000000 -0.000000 -0.000000 -0.000000 -0.000000 -0.000000 -0.000000 -0.000000 -0.000001 -0.000001 -0.000002 -0.000003 -0.000006 -0.000009 -0.000016 -0.000026 -0.000043 -0.000070 -0.000113 -0.000180 -0.000284 -0.000443 -0.000684 -0.001045 -0.001580 -0.002361 -0.003488 -0.005093 -0.007348 -0.010468 -0.014717 -0.020401 -0.027856 -0.037412 -0.049330 -0.063691 -0.080219 -0.098008 -0.115115 -0.127959 -0.130493 -0.113033 -0.060686 0.048750 0.247531 0.581507 1.114601 1.934386 3.158904 4.944830 7.496980 11.079046 16.025198 22.751961 31.769541 43.691676 59.243386 79.266747 104.726361 136.718246 176.488058 225.465586 285.320226 358.032967 445.958043 551.803634 678.392590 827.999745 1001.116879 1194.948512 1403.233078 1620.823308 1854.243586 2127.476428 2465.421749 2870.741733 3336.793626 3866.041676 4459.192507 5098.089495 5751.139007 6384.579070 7006.231711 7636.431150 8259.748609 8832.738048 9313.802016 9708.618508 10045.744873 10301.184591 10477.409381 10722.102190 11133.395449 11698.163524 12162.410660 12258.532526 12258.532526 12258.532526 -0.000000 -0.000000 -0.000000 -0.000000 -0.000000 0.000000 0.000000 -0.000000 -0.000000 0.000000 -0.000000 -0.000000 -0.000000 -0.000000 -0.000000 -0.000000 -0.000000 -0.000000 -0.000000 -0.000000 -0.000000 -0.000001 -0.000001 -0.000002 -0.000003 -0.000006 -0.000009 -0.000016 -0.000026 -0.000043 -0.000070 -0.000113 -0.000180 -0.000284 -0.000443 -0.000684 -0.001045 -0.001580 -0.002361 -0.003488 -0.005093 -0.007348 -0.010468 -0.014717 -0.020401 -0.027856 -0.037412 -0.049330 -0.063691 -0.080219 -0.098008 -0.115115 -0.127959 -0.130493 -0.113033 -0.060686 0.048750 0.247531 0.581507 1.114601 1.934386 3.158904 4.944830 7.496980 11.079046 16.025198 22.751961 31.769541 43.691676 59.243386 79.266747 104.726361 136.718246 176.488058 225.465586 285.320226 358.032967 445.958043 551.803634 678.392590 827.999745 1001.116879 1194.948512 1403.233078 1620.823308 1854.243586 2127.476428 2465.421749 2870.741733 3336.793626 3866.041676 4459.192507 5098.089495 5751.139007 6384.579070 7006.231711 7636.431150 8259.748609 8832.738048 9313.802016 9708.618508 10045.744873 10301.184591 10477.409381 10722.102190 11133.395449 11698.163524 12162.410660 12258.532526 12258.532526 12258.532526 -0.000000 -0.000000 -0.000000 -0.000000 -0.000000 0.000000 0.000000 -0.000000 -0.000000 0.000000 -0.000000 -0.000000 -0.000000 -0.000000 -0.000000 -0.000000 -0.000000 -0.000000 -0.000000 -0.000000 -0.000000 -0.000001 -0.000001 -0.000002 -0.000003 -0.000006 -0.000009 -0.000016 -0.000026 -0.000043 -0.000070 -0.000113 -0.000180 -0.000284 -0.000443 -0.000684 -0.001045 -0.001580 -0.002361 -0.003488 -0.005093 -0.007348 -0.010468 -0.014717 -0.020401 -0.027856 -0.037412 -0.049330 -0.063691 -0.080219 -0.098008 -0.115115 -0.127959 -0.130493 -0.113033 -0.060686 0.048750 0.247531 0.581507 1.114601 1.934386 3.158904 4.944830 7.496980 11.079046 16.025198 22.751961 31.769541 43.691676 59.243386 79.266747 104.726361 136.718246 176.488058 225.465586 285.320226 358.032967 445.958043 551.803634 678.392590 827.999745 1001.116879 1194.948512 1403.233078 1620.823308 1854.243586 2127.476428 2465.421749 2870.741733 3336.793626 3866.041676 4459.192507 5098.089495 5751.139007 6384.579070 7006.231711 7636.431150 8259.748609 8832.738048 9313.802016 9708.618508 10045.744873 10301.184591 10477.409381 10722.102190 11133.395449 11698.163524 12162.410660 12258.532526 12258.532526 12258.532526 -1342.940032 -1586.858807 -2052.929315 -2176.275923 -414.316243 246.915491 -1032.759256 -1121.318510 996.268530 1082.698110 -234.407313 -1541.629411 -1146.883590 1363.744501 692.212191 -1549.248249 -1417.769956 1672.476984 696.045753 -1773.176526 62.637392 2299.432370 895.330641 -631.210857 -2261.849345 -568.840015 2283.123894 463.789518 -2170.585959 -2887.395387 1361.508400 2656.171946 2679.015318 5984.116414 7268.706681 9585.942961 7081.376792 10273.995178 10275.673667 15193.791805 13944.548264 9941.017326 13764.165432 12642.827814 11274.838119 11862.167497 17095.071576 19386.589830 17721.179074 16269.417448 20740.659742 19974.354464 15572.301554 15163.450594 15163.450594 15163.450594 -533.785064 103.888477 -367.591524 11755.512107 10955.731903 13662.404777 14524.297086 13802.370509 17575.597844 13552.784199 16269.655383 16358.269931 12558.802138 18716.809381 21034.468664 18787.314175 18716.621898 21064.607074 20188.175189 19234.713819 23328.736826 25156.238216 22451.003459 19720.157027 23165.001418 22742.339244 19680.873349 15122.176602 20903.524084 12398.835183 13963.873523 8657.232343 22585.696418 22343.777695 11382.635115 21327.647654 14963.077228 22210.203089 9897.442416 15303.160585 20304.571259 11954.002877 18336.911401 18719.022189 11579.421149 16485.147205 17202.897230 22556.484854 27473.272545 21567.007724 20483.917811 22789.917015 16290.408525 15429.345263 15429.345263 15429.345263 149.768704 67.662890 4921.928037 1719.111017 12254.141830 13260.544505 11582.712537 13540.714648 15283.692223 12299.383239 15316.031628 14179.740047 11797.845814 12513.773279 14977.731645 10839.699499 13646.536362 14582.279690 15377.312661 17682.095538 16842.296851 19970.938638 21457.621591 22438.877560 24563.223996 24619.195801 21703.854115 21372.272460 21872.478845 19022.650134 19473.126892 19732.465916 20259.825735 21783.551237 16202.226243 17985.316920 18375.928902 22382.758776 19590.908013 28807.487862 18126.918752 17289.802853 15628.980016 20255.602717 21227.399302 17543.755298 16525.126215 23718.583328 21430.532231 18283.106291 18511.716646 17924.551973 15752.909451 15783.251839 15783.251839 15783.251839 -125.571812 -518.423218 11866.242227 2880.218025 9541.935896 3554.798145 12867.694172 8032.703572 8710.703429 12640.046119 11075.217566 15416.370688 11444.960624 16206.065709 14147.273147 11758.376076 14549.241205 14336.079757 13858.097561 16473.981351 14633.987657 13407.907183 16076.134167 16577.217377 18526.157427 18455.631545 15103.775389 15947.631915 19672.046436 18473.609968 19854.522100 17289.984233 19017.745789 15765.467870 19067.907224 19884.961830 16674.477301 19280.673287 16900.987005 14973.152611 17705.929953 18788.749592 17492.980402 20409.328167 20995.579037 20605.652221 23318.638178 14255.383778 13975.256102 20016.887826 19075.576887 9281.958380 15179.768145 16198.767929 16198.767929 16198.767929 733.301612 1191.165826 135.188367 3429.430112 3738.551007 7491.076263 7919.829889 8645.353254 12005.702178 7977.629159 7669.076678 12179.697649 9238.739303 14005.996431 14626.659545 12533.645943 11915.875069 12682.684508 12397.193787 12731.427983 10187.272985 13758.186248 15585.230296 15322.783195 14043.679218 17766.983856 17897.042355 1776