<VTKFile type="PolyData">
<PolyData>
<Piece NumberOfPoints="8632" NumberOfVerts="8632" NumberOfLines="0" NumberOfStrips="0" NumberOfPolys="0">
<PointData>
<DataArray type="Float64" Name="Pressure" format="ascii">
 -0.000000 -0.000000 -0.000000 -0.000000 -0.000000 -0.000000 0.000000 0.000000 0.000000 0.000000 0.000000 0.000000 0.000000 0.000000 0.000000 0.000000 0.000000 0.000000 0.000000 0.000000 0.000000 0.000000 0.000000 0.000000 0.000000 0.000000 0.000000 0.000000 0.000000 0.000000 0.000000 0.000000 0.000000 0.000000 0.000000 0.000000 0.000000 0.000000 0.000000 0.000000 0.000000 -0.000000 -0.000000 -0.000000 -0.000007 -0.000080 -0.000781 -0.006291 -0.041982 -0.232248 -1.062235 -3.981069 -11.988514 -27.685941 -45.669594 -49.354997 -32.257088 -12.107690 -1.618511 1.724487 2.625934 2.916468 3.030874 3.077730 3.096137 3.102707 3.104693 3.105106 3.105082 3.104993 3.104929 3.104894 3.104878 3.104872 3.104869 3.104868 3.104868 3.104868 3.104868 3.104868 3.104868 3.104869 3.104871 3.104880 3.104908 3.104999 3.105280 3.106120 3.108530 3.115160 3.132631 3.176614 3.282162 3.522955 4.043690 5.107956 7.156035 10.853638 17.095956 26.905733 41.209649 60.395931 83.510165 106.557137 119.910596 108.901579 65.742465 22.394453 13.124596 13.124596 13.124596 -0.000000 -0.000000 -0.000000 -0.000000 -0.000000 -0.000000 0.000000 0.000000 0.000000 0.000000 0.000000 0.000000 0.000000 0.000000 0.000000 0.000000 0.000000 0.000000 0.000000 0.000000 0.000000 0.000000 0.000000 0.000000 0.000000 0.000000 0.000000 0.000000 0.000000 0.000000 0.000000 0.000000 0.000000 0.000000 0.000000 0.000000 0.000000 0.000000 0.000000 0.000000 0.000000 -0.000000 -0.000000 -0.000000 -0.000007 -0.000080 -0.000781 -0.006291 -0.041982 -0.232248 -1.062235 -3.981069 -11.988514 -27.685941 -45.669594 -49.354997 -32.257088 -12.107690 -1.618511 1.724487 2.625934 2.916468 3.030874 3.077730 3.096137 3.102707 3.104693 3.105106 3.105082 3.104993 3.104929 3.104894 3.104878 3.104872 3.104869 3.104868 3.104868 3.104868 3.104868 3.104868 3.104868 3.104869 3.104871 3.104880 3.104908 3.104999 3.105280 3.106120 3.108530 3.115160 3.132631 3.176614 3.282162 3.522955 4.043690 5.107956 7.156035 10.853638 17.095956 26.905733 41.209649 60.395931 83.510165 106.557137 119.910596 108.901579 65.742465 22.394453 13.124596 13.124596 13.124596 -0.000000 -0.000000 -0.000000 -0.000000 -0.000000 -0.000000 0.000000 0.000000 0.000000 0.000000 0.000000 0.000000 0.000000 0.000000 0.000000 0.000000 0.000000 0.000000 0.000000 0.000000 0.000000 0.000000 0.000000 0.000000 0.000000 0.000000 0.000000 0.000000 0.000000 0.000000 0.000000 0.000000 0.000000 0.000000 0.000000 0.000000 0.000000 0.000000 0.000000 0.000000 0.000000 -0.000000 -0.000000 -0.000000 -0.000007 -0.000080 -0.000781 -0.006291 -0.041982 -0.232248 -1.062235 -3.981069 -11.988514 -27.685941 -45.669594 -49.354997 -32.257088 -12.107690 -1.618511 1.724487 2.625934 2.916468 3.030874 3.077730 3.096137 3.102707 3.104693 3.105106 3.105082 3.104993 3.104929 3.104894 3.104878 3.104872 3.104869 3.104868 3.104868 3.104868 3.104868 3.104868 3.104868 3.104869 3.104871 3.104880 3.104908 3.104999 3.105280 3.106120 3.108530 3.115160 3.132631 3.176614 3.282162 3.522955 4.043690 5.107956 7.156035 10.853638 17.095956 26.905733 41.209649 60.395931 83.510165 106.557137 119.910596 108.901579 65.742465 22.394453 13.124596 13.124596 13.124596 -0.000000 -0.000000 -0.000000 -0.000000 -0.000000 -0.000000 0.000000 0.000000 0.000000 0.000000 0.000000 0.000000 0.000000 0.000000 0.000000 0.000000 0.000000 0.000000 0.000000 0.000000 0.000000 0.000000 0.000000 0.000000 0.000000 0.000000 0.000000 0.000000 0.000000 0.000000 0.000000 0.000000 0.000000 0.000000 0.000000 0.000000 0.000000 0.000000 0.000000 0.000000 0.000000 -0.000000 -0.000000 -0.000000 -0.000007 -0.000083 -0.000821 -0.006724 -0.045754 -0.259436 -1.225441 -4.797650 -15.335811 -38.129190 -67.257163 -74.702082 -44.044693 -13.163369 -0.583737 2.449694 3.290589 3.677911 3.873057 3.964639 4.004858 4.021248 4.027162 4.028897 4.029206 4.029143 4.029041 4.028973 4.028937 4.028920 4.028914 4.028911 4.028910 4.028910 4.028910 4.028910 4.028911 4.028913 4.028922 4.028951 4.029045 4.029335 4.030200 4.032681 4.039518 4.057582 4.103239 4.213383 4.466338 5.017813 6.155603 8.369235 12.414850 19.334398 30.359154 46.668003 69.056166 97.241525 129.914545 161.546784 180.801555 165.824535 98.169973 31.522341 18.012246 18.012246 18.012246 -0.000000 -0.000000 -0.000000 -0.000000 -0.000000 0.000000 0.000000 0.000000 0.000000 0.000000 0.000000 0.000000 0.000000 0.000000 0.000000 0.000000 0.000000 0.000000 0.000000 0.000000 0.000000 0.000000 0.000000 0.000000 0.000000 0.000000 0.000000 0.000000 0.000000 0.000000 0.000000 0.000000 0.000000 0.000000 0.000000 0.000000 0.000000 0.000000 0.000000 0.000000 0.000000 -0.000000 -0.000000 -0.000001 -0.000009 -0.000113 -0.001210 -0.010803 -0.081173 -0.516002 -2.786661 -12.824870 -50.056073 -163.859477 -370.692442 -441.373048 -164.274716 11.410354 18.741053 10.182796 11.045796 13.440043 14.980620 15.876723 16.369164 16.618408 16.731687 16.776512 16.791426 16.795099 16.795306 16.794815 16.794394 16.794149 16.794029 16.793977 16.793956 16.793948 16.793948 16.793954 16.793981 16.794069 16.794352 16.795236 16.797894 16.805596 16.827072 16.884582 17.032192 17.394505 18.242863 20.132478 24.123858 32.091904 47.061374 73.402905 116.620298 182.251407 273.920071 391.500645 527.965425 675.842136 819.180913 967.326519 1059.295586 1009.312048 576.411851 155.285131 77.361130 77.361130 77.361130 -0.000000 -0.000000 -0.000000 -0.000000 -0.000000 0.000000 0.000000 0.000000 0.000000 0.000000 0.000000 0.000000 0.000000 0.000000 0.000000 0.000000 -0.000000 0.000000 0.000000 -0.000000 0.000000 -0.000000 -0.000000 0.000000 0.000000 0.000000 0.000000 0.000000 0.000000 -0.000000 -0.000000 0.000000 -0.000000 0.000000 -0.000000 -0.000000 0.000000 -0.000000 0.000000 -0.000000 -0.000000 -0.000000 -0.000000 -0.000001 -0.000014 -0.000176 -0.001918 -0.017592 -0.136802 -0.906537 -5.147166 -25.175819 -107.442461 -397.481947 -1482.898038 -1826.711812 -291.246215 182.693117 8.897634 -38.463285 -26.277463 -19.524724 -14.404516 -11.003134 -8.726310 -7.297808 -6.540668 -6.181628 -6.029455 -5.974140 -5.958000 -5.955266 -5.956037 -5.957138 -5.957873 -5.958260 -5.958437 -5.958503 -5.958496 -5.958383 -5.957987 -5.956738 -5.952957 -5.941919 -5.910852 -5.826703 -5.607722 -5.061339 -3.757060 -0.785767 5.656248 18.909343 44.687897 91.889651 172.928266 302.599778 494.148784 754.975332 1078.506192 1432.268271 1807.709799 2123.841611 2452.448386 2761.022698 2889.648078 3283.466631 1749.237783 399.265219 178.273723 178.273723 178.273723 -0.000000 -0.000000 -0.000000 -0.000000 -0.000000 0.000000 -0.000000 -0.000000 -0.000000 -0.000000 -0.000000 0.000000 0.000000 0.000000 0.000000 0.000000 0.000000 0.000000 0.000000 0.000000 0.000000 0.000000 0.000000 0.000000 0.000000 0.000000 0.000000 0.000000 0.000000 0.000000 0.000000 0.000000 0.000000 0.000000 0.000000 0.000000 0.000000 0.000000 0.000000 0.000000 0.000000 0.000000 0.000000 0.000000 0.000000 0.000000 0.000000 0.000000 0.000000 0.000000 0.000000 0.000000 0.000000 0.000000 0.000000 0.000000 0.000000 0.000000 0.000000 0.000000 0.000000 0.000000 0.000000 0.000000 0.000000 0.000000 0.000000 0.000000 0.000000 0.000000 0.000000 0.000000 0.000000 0.000000 0.000000 0.000000 0.000000 0.000000 0.000000 0.000000 0.000000 -0.000000 0.000000 0.000000 0.000000 0.000000 0.000000 -0.000000 0.000000 0.000000 0.000000 0.000000 0.000000 -0.000000 0.000000 0.000000 0.000000 0.000000 0.000000 -0.000000 0.000000 0.000000 0.000000 0.000000 0.000000 0.000000 0.000000 0.000000 0.000000 0.000000 0.000000 0.000000 0.000000 0.000000 0.000000 0.000000 0.000000 0.000000 0.000000 0.000000 0.000000 0.000000 0.000000 0.000000 0.000000 0.000000 0.000000 0.000000 0.000000 0.000000 0.000000 0.000000 0.000000 0.000000 0.000000 0.000000 0.000000 0.000000 0.000000 0.000000 0.000000 -0.000000 0.000000 0.000000 0.000000 0.000000 0.000000 -0.000000 0.000000 0.000000 0.000000 0.000000 0.000000 -0.000000 0.000000 0.000000 0.000000 0.000000 0.000000 -0.000000 0.000000 0.000000 0.000000 0.000000 0.000000 -0.000000 0.000000 0.000000 0.000000 0.000000 0.000000 -0.000000 0.000000 0.000000 0.000000 0.000000 0.000000 -0.000000 0.000000 0.000000 0.000000 0.000000 0.000000 -0.000000 0.000000 0.000000 0.000000 0.000000 0.000000 -0.000000 0.000000 0.000000 0.000000 0.000000 0.000000 -0.000000 0.000000 0.000000 0.000000 0.000000 0.000000 -0.000000 0.000000 0.000000 0.000000 0.000000 0.000000 -0.000000 0.000000 0.000000 0.000000 0.000000 0.000000 -0.000000 0.000000 0.000000 0.000000 0.000000 0.000000 -0.000000 0.000000 0.000000 0.000000 0.000000 0.000000 -0.000000 0.000000 0.000000 0.000000 0.000000 0.000000 0.000000 0.000000 0.000000 -0.000000 -0.000000 -0.000000 0.000000 -0.000000 0.000000 -0.000000 -0.000000 -0.000000 -0.000000 -0.000000 -0.000000 -0.000000 -0.000000 -0.000000 -0.000000 -0.000000 -0.000000 -0.000000 -0.000000 -0.000000 -0.000000 -0.000000 -0.000000 -0.000000 -0.000000 -0.000000 -0.000000 -0.000000 -0.000000 -0.000000 -0.000000 -0.000000 -0.000000 -0.000000 -0.000000 -0.000000 -0.000000 -0.000000 -0.000000 -0.000000 -0.000000 -0.000000 -0.000000 -0.000000 -0.000000 -0.000000 -0.000000 -0.000000 -0.000000 -0.000000 -0.000000 -0.000000 -0.000000 -0.000000 -0.000000 -0.000000 -0.000000 -0.000000 -0.000000 -0.000000 -0.000000 -0.000000 -0.000000 -0.000000 -0.000000 -0.000000 -0.000000 -0.000000 -0.000000 -0.000000 -0.000000 -0.000000 -0.000000 -0.000000 -0.000000 -0.000000 -0.000000 -0.000000 -0.000000 -0.000000 -0.000000 -0.000000 -0.000000 -0.000000 -0.000000 -0.000000 -0.000000 -0.000000 -0.000000 -0.000000 -0.000000 -0.000000 -0.000000 -0.000000 -0.000000 -0.000000 -0.000000 -0.000000 -0.000000 -0.000000 -0.000000 -0.000000 -0.000000 -0.000000 -0.000000 -0.000000 -0.000000 -0.000000 -0.000000 -0.000000 -0.000000 -0.000000 -0.000000 -0.000000 -0.000000 -0.000000 -0.000000 -0.000000 -0.000000 -0.000000 -0.000000 -0.000000 -0.000000 -0.000000 -0.000000 -0.000000 -0.000000 -0.000000 -0.000000 -0.000000 -0.000000 -0.000000 -0.000000 -0.000000 -0.000000 -0.000000 -0.000000 -0.000000 -0.000000 -0.000000 -0.000000 -0.000000 -0.000000 -0.000000 -0.000000 -0.000000 -0.000000 -0.000000 -0.000000 -0.000000 -0.000000 -0.000000 -0.000000 -0.000000 -0.000000 -0.000000 -0.000000 -0.000000 -0.000000 -0.000000 -0.000000 -0.000000 -0.000000 -0.000000 -0.000000 -0.000000 -0.000000 -0.000000 -0.000000 -0.000000 -0.000000 -0.000000 -0.000000 -0.000000 -0.000000 -0.000000 -0.000000 -0.000000 -0.000000 -0.000000 -0.000000 -0.000000 -0.000000 -0.000000 -0.000000 -0.000000 -0.000000 -0.000000 -0.000000 -0.000000 -0.000000 -0.000000 -0.000000 -0.000000 -0.000000 -0.000000 -0.000000 -0.000000 -0.000000 -0.000000 -0.000000 -0.000000 -0.000000 -0.000000 -0.000000 -0.000000 -0.000000 -0.000000 -0.000000 -0.000000 -0.000000 -0.000000 -0.000000 -0.000000 -0.000000 -0.000000 -0.000000 -0.000000 -0.000000 -0.000000 -0.000000 -0.000000 -0.000000 -0.000000 -0.000000 -0.000000 -0.000000 -0.000000 -0.000000 -0.000000 -0.000000 -0.000000 -0.000000 -0.000000 -0.000000 -0.000000 -0.000000 -0.000000 -0.000000 -0.000000 -0.000000 -0.000000 -0.000000 -0.000000 -0.000000 -0.000000 -0.000000 -0.000000 -0.000000 -0.000000 -0.000000 -0.000000 -0.000000 -0.000000 -0.000000 -0.000000 -0.000000 -0.000000 -0.000000 -0.000000 -0.000000 -0.000000 -0.000000 -0.000000 -0.000000 -0.000000 -0.000000 -0.000000 -0.000000 -0.000000 -0.000000 -0.000000 -0.000000 -0.000000 -0.000000 -0.000000 -0.000000 -0.000000 -0.000000 -0.000000 -0.000000 -0.000000 -0.000000 -0.000000 -0.000000 -0.000000 -0.000000 -0.000000 -0.000000 -0.000000 -0.000000 -0.000000 -0.000000 -0.000000 -0.000000 -0.000000 -0.000000 -0.000000 -0.000000 -0.000000 -0.000000 -0.000000 -0.000000 -0.000000 -0.000000 -0.000000 -0.000000 -0.000000 -0.000000 -0.000000 -0.000000 -0.000000 -0.000000 -0.000000 -0.000000 -0.000000 -0.000000 -0.000000 -0.000000 -0.000000 -0.000000 -0.000000 -0.000000 -0.000000 -0.000000 -0.000000 -0.000000 -0.000000 -0.000000 -0.000000 -0.000000 -0.000000 -0.000000 -0.000000 -0.000000 -0.000000 -0.000000 -0.000000 -0.000000 -0.000000 -0.000000 -0.000000 -0.000000 -0.000000 -0.000000 -0.000000 -0.000000 -0.000000 -0.000000 -0.000000 -0.000000 -0.000000 -0.000000 -0.000000 -0.000000 -0.000000 -0.000000 -0.000000 -0.000000 -0.000000 -0.000000 -0.000000 -0.000000 -0.000000 -0.000000 -0.000000 -0.000000 -0.000000 -0.000000 -0.000000 -0.000000 -0.000000 -0.000000 -0.000000 -0.000000 -0.000000 -0.000000 -0.000000 -0.000000 -0.000000 -0.000000 -0.000000 -0.000000 -0.000000 -0.000000 -0.000000 -0.000000 -0.000000 -0.000000 -0.000000 -0.000000 -0.000000 -0.000000 -0.000000 -0.000000 -0.000000 -0.000000 -0.000000 -0.000000 -0.000000 -0.000000 -0.000000 -0.000000 -0.000000 -0.000000 -0.000000 -0.000000 -0.000000 -0.000000 -0.000000 -0.000000 -0.000000 -0.000000 -0.000000 -0.000000 -0.000000 -0.000000 -0.000000 -0.000000 -0.000000 -0.000000 -0.000000 -0.000000 -0.000000 -0.000000 -0.000000 -0.000000 -0.000000 -0.000000 -0.000000 -0.000000 -0.000000 -0.000000 -0.000000 -0.000000 -0.000000 -0.000000 -0.000000 -0.000000 -0.000000 -0.000000 -0.000000 -0.000000 -0.000000 -0.000000 -0.000000 -0.000000 -0.000000 -0.000000 -0.000000 -0.000000 -0.000000 -0.000000 -0.000000 -0.000000 -0.000000 -0.000000 -0.000000 -0.000000 -0.000000 -0.000000 -0.000000 -0.000000 -0.000000 -0.000000 -0.000000 -0.000000 -0.000000 -0.000000 -0.000000 -0.000000 -0.000000 -0.000000 -0.000000 -0.000000 -0.000000 -0.000000 -0.000000 -0.000000 -0.000000 -0.000000 -0.000000 -0.000000 -0.000000 -0.000000 -0.000000 -0.000000 -0.000000 -0.000000 -0.000000 -0.000000 -0.000000 -0.000000 -0.000000 -0.000000 -0.000000 -0.000000 -0.000000 -0.000000 -0.000000 -0.000000 -0.000000 -0.000000 -0.000000 -0.000000 -0.000000 -0.000000 -0.000000 -0.000000 -0.000000 -0.000000 -0.000000 -0.000000 -0.000000 -0.000000 -0.000000 -0.000000 -0.000000 -0.000000 -0.000000 -0.000000 -0.000000 -0.000000 -0.000000 -0.000000 -0.000000 -0.000000 -0.000000 -0.000000 -0.000000 -0.000000 -0.000000 -0.000000 -0.000000 -0.000000 -0.000000 -0.000000 -0.000000 -0.000000 -0.000000 -0.000000 -0.000000 -0.000000 -0.000000 -0.000000 -0.000000 -0.000000 -0.000000 -0.000000 -0.000000 -0.000000 -0.000000 -0.000000 -0.000000 -0.000000 -0.000000 -0.000000 -0.000000 -0.000000 -0.000000 -0.000000 -0.000000 -0.000000 -0.000000 -0.000000 -0.000000 -0.000000 -0.000000 -0.000000 -0.000000 -0.000000 -0.000000 -0.000000 -0.000000 -0.000000 -0.000000 -0.000000 -0.000000 -0.000000 -0.000000 -0.000000 -0.000000 -0.000000 -0.000000 -0.000000 -0.000000 -0.000000 -0.000000 -0.000000 -0.000000 -0.000000 -0.000000 -0.000000 -0.000000 -0.000000 -0.000000 -0.000000 -0.000000 -0.000000 -0.000000 -0.000000 -0.000000 -0.000000 -0.000000 -0.000000 -0.000000 -0.000000 -0.000000 -0.000000 -0.000000 -0.000000 -0.000000 -0.000000 -0.000000 -0.000000 -0.000000 -0.000000 -0.000000 -0.000000 -0.000000 -0.000000 -0.000000 -0.000000 -0.000000 -0.000000 -0.000000 -0.000000 -0.000000 -0.000000 -0.000000 -0.000000 -0.000000 -0.000000 -0.000000 -0.000000 -0.000000 -0.000000 -0.000000 -0.000000 -0.000000 -0.000000 -0.000000 -0.000000 -0.000000 -0.000000 -0.000000 -0.000000 -0.000000 -0.000000 -0.000000 -0.000000 -0.000000 -0.000000 -0.000000 -0.000000 -0.000000 -0.000000 -0.000000 -0.000000 -0.000000 -0.000000 -0.000000 -0.000000 -0.000000 -0.000000 -0.000000 -0.000000 -0.000000 -0.000000 -0.000000 -0.000000 -0.000000 -0.000000 -0.000000 -0.000000 -0.000000 -0.000000 -0.000000 -0.000000 -0.000000 -0.000000 -0.000000 -0.000000 -0.000000 -0.000000 -0.000000 -0.000000 -0.000000 -0.000000 -0.000000 -0.000000 -0.000000 -0.000000 -0.000000 -0.000000 -0.000000 -0.000000 -0.000000 -0.000000 -0.000000 -0.000000 -0.000000 -0.000000 -0.000000 -0.000000 -0.000000 -0.000000 -0.000000 -0.000000 -0.000000 -0.000000 -0.000000 -0.000000 -0.000000 -0.000000 -0.000000 -0.000000 -0.000000 -0.000000 -0.000000 -0.000000 -0.000000 -0.000000 -0.000000 -0.000000 -0.000000 -0.000000 -0.000000 -0.000000 0.000000 -0.000000 -0.000000 -0.000000 -0.000000 -0.000000 -0.000000 -0.000000 -0.000000 -0.000000 -0.000000 -0.000000 -0.000000 -0.000000 -0.000000 -0.000000 -0.000000 -0.000000 -0.000000 -0.000000 -0.000000 -0.000000 -0.000000 -0.000000 -0.000000 -0.000000 -0.000000 -0.000000 -0.000000 -0.000000 -0.000000 -0.000000 -0.000000 -0.000000 -0.000000 0.000000 -0.000000 -0.000000 -0.000000 -0.000000 -0.000000 0.000000 -0.000000 -0.000000 -0.000000 -0.000000 -0.000000 0.000000 -0.000000 -0.000000 -0.000000 -0.000000 -0.000000 0.000000 -0.000000 -0.000000 -0.000000 -0.000000 -0.000000 0.000000 -0.000000 -0.000000 -0.000000 -0.000000 -0.000000 0.000000 -0.000000 -0.000000 -0.000000 -0.000000 -0.000000 0.000000 -0.000000 -0.000000 -0.000000 -0.000000 -0.000000 0.000000 -0.000000 -0.000000 -0.000000 -0.000000 -0.000000 0.000000 -0.000000 -0.000000 -0.000000 -0.000000 -0.000000 0.000000 -0.000000 -0.000000 -0.000000 -0.000000 -0.000000 0.000000 -0.000000 -0.000000 -0.000000 -0.000000 -0.000000 0.000000 -0.000000 -0.000000 -0.000000 -0.000000 -0.000000 0.000000 -0.000000 -0.000000 -0.000000 -0.000000 -0.000000 0.000000 -0.000000 -0.000000 -0.000000 -0.000000 -0.000000 0.000000 -0.000000 -0.000000 -0.000000 -0.000000 -0.000000 0.000000 -0.000000 -0.000000 -0.000000 -0.000000 -0.000000 0.000000 -0.000000 -0.000000 -0.000000 -0.000000 -0.000000 0.000000 -0.000000 -0.000000 -0.000000 -0.000000 -0.000000 0.000000 -0.000000 -0.000000 -0.000000 -0.000000 -0.000000 0.000000 -0.000000 -0.000000 -0.000000 -0.000000 -0.000000 0.000000 -0.000000 -0.000000 -0.000000 -0.000000 -0.000000 0.000000 -0.000000 -0.000000 -0.000000 -0.000000 -0.000000 0.000000 -0.000000 -0.000000 -0.000000 -0.000000 -0.000000 0.000000 -0.000000 -0.000000 -0.000000 -0.000000 -0.000000 0.000000 -0.000000 -0.000000 -0.000000 -0.000000 -0.000000 0.000000 -0.000000 -0.000000 -0.000000 -0.000000 -0.000000 0.000000 -0.000000 -0.000000 -0.000000 -0.000000 -0.000000 0.000000 -0.000000 -0.000000 -0.000000 -0.000000 -0.000000 0.000000 -0.000000 -0.000000 -0.000000 -0.000000 -0.000000 0.000000 -0.000000 -0.000000 -0.000000 -0.000000 -0.000000 0.000000 -0.000000 -0.000000 -0.000000 -0.000000 -0.000000 0.000000 -0.000000 0.000000 -0.000000 -0.000000 -0.000000 0.000000 0.000000 0.000000 -0.000000 -0.000000 -0.000000 0.000000 -0.000000 0.000000 0.000000 0.000000 0.000000 0.000000 -0.000000 -0.000000 -0.000000 -0.000000 -0.000000 -0.000000 -0.000000 -0.000000 -0.000000 -0.000000 -0.000000 -0.000000 -0.000000 -0.000000 -0.000000 -0.000000 -0.000000 -0.000000 -0.000000 -0.000000 -0.000000 -0.000000 -0.000000 -0.000000 -0.000000 -0.000000 -0.000000 -0.000000 -0.000000 -0.000000 -0.000000 -0.000000 -0.000000 -0.000000 -0.000000 -0.000000 -0.000000 -0.000000 -0.000000 -0.000000 -0.000000 -0.000000 -0.000000 -0.000000 -0.000000 -0.000000 -0.000000 -0.000000 -0.000000 -0.000000 -0.000000 -0.000000 -0.000000 -0.000000 -0.000000 -0.000000 -0.000000 -0.000000 -0.000000 -0.000000 -0.000000 -0.000000 -0.000000 -0.000000 -0.000000 -0.000000 -0.000000 -0.000000 -0.000000 -0.000002 -0.000028 -0.000351 -0.003691 -0.032804 -0.247298 -1.587879 -8.723061 -41.186269 -169.224436 -600.373423 -2194.923611 -2611.444564 -24.726745 154.392018 -56.911684 -19.045871 26.286825 76.608740 144.308254 248.797601 418.543227 692.182016 1114.947499 1731.624770 2568.247978 3604.361551 4824.115929 6040.726098 7307.011671 8275.704767 9619.549092 10598.114768 5218.260476 922.347939 301.578948 301.578948 301.578948 0.000000 0.000000 0.000000 0.000000 -0.000000 -0.000000 -0.000000 -0.000000 -0.000000 -0.000000 -0.000000 -0.000000 -0.000000 -0.000000 -0.000000 -0.000000 -0.000000 -0.000000 -0.000000 -0.000000 -0.000000 -0.000000 -0.000000 -0.000000 -0.000000 0.000000 -0.000000 -0.000000 -0.000000 -0.000000 -0.000000 -0.000000 -0.000000 -0.000000 -0.000000 -0.000000 -0.000000 -0.000000 -0.000000 -0.000000 -0.000000 -0.000000 -0.000000 -0.000000 -0.000000 -0.000000 -0.000000 -0.000000 0.000000 -0.000000 -0.000000 0.000000 -0.000000 -0.000000 -0.000000 -0.000000 0.000000 -0.000000 -0.000000 -0.000000 -0.000000 0.000000 -0.000000 -0.000000 0.000000 -0.000000 -0.000000 -0.000000 -0.000000 0.000000 -0.000000 -0.000000 -0.000000 -0.000001 -0.000019 -0.000236 -0.002453 -0.021428 -0.157822 -0.983748 -5.201849 -23.348826 -88.221977 -276.179970 -567.541377 -517.016775 -40.606361 3.425756 -10.090093 -4.250423 8.372434 20.150513 33.316375 51.969402 82.555411 134.748904 221.734325 359.294045 563.209122 844.623708 1203.447322 1626.689769 2087.426432 2559.448544 3057.158505 3084.317198 1588.568421 335.123444 135.133845 135.133845 135.133845 0.000000 0.000000 0.000000 0.000000 0.000000 0.000000 0.000000 0.000000 -0.000000 0.000000 0.000000 0.000000 0.000000 0.000000 0.000000 -0.000000 -0.000000 -0.000000 -0.000000 -0.000000 -0.000000 -0.000000 -0.000000 -0.000000 0.000000 0.000000 -0.000000 -0.000000 -0.000000 -0.000000 -0.000000 -0.000000 -0.000000 -0.000000 -0.000000 -0.000000 -0.000000 -0.000000 -0.000000 -0.000000 -0.000000 -0.000000 -0.000000 -0.000000 -0.000000 -0.000000 -0.000000 -0.000000 -0.000000 -0.000000 -0.000000 -0.000000 -0.000000 -0.000000 -0.000000 -0.000000 -0.000000 -0.000000 -0.000000 -0.000000 -0.000000 -0.000000 -0.000000 -0.000000 -0.000000 -0.000000 -0.000000 -0.000000 -0.000000 -0.000000 -0.000000 -0.000000 -0.000000 -0.000001 -0.000012 -0.000140 -0.001362 -0.011011 -0.074161 -0.416845 -1.953374 -7.582902 -23.941450 -57.728713 -94.557759 -88.553096 -39.885754 -10.014808 -1.513915 1.824485 4.015756 5.574623 6.850442 8.332729 10.706657 15.025227 22.905729 36.682822 59.395694 94.492670 145.123554 212.894769 296.609721 388.573834 460.540516 430.966331 245.899779 67.365245 32.620054 32.620054 32.620054 -0.000000 -0.000000 -0.000000 -0.000000 -0.000000 0.000000 0.000000 -0.000000 -0.000000 0.000000 0.000000 0.000000 0.000000 0.000000 0.000000 -0.000000 -0.000000 -0.000000 -0.000000 -0.000000 -0.000000 -0.000000 -0.000000 -0.000000 0.000000 0.000000 -0.000000 -0.000000 -0.000000 -0.000000 -0.000000 -0.000000 -0.000000 -0.000000 -0.000000 -0.000000 -0.000000 -0.000000 -0.000000 -0.000000 -0.000000 -0.000000 -0.000000 -0.000000 -0.000000 -0.000000 -0.000000 -0.000000 -0.000000 -0.000000 -0.000000 -0.000000 -0.000000 -0.000000 -0.000000 -0.000000 -0.000000 -0.000000 -0.000000 -0.000000 -0.000000 -0.000000 -0.000000 -0.000000 -0.000000 -0.000000 -0.000000 -0.000000 -0.000000 -0.000000 -0.000000 -0.000000 -0.000000 -0.000001 -0.000011 -0.000128 -0.001210 -0.009483 -0.061493 -0.329849 -1.456535 -5.232571 -14.927004 -32.104636 -47.973492 -45.385659 -25.455585 -9.042170 -1.594087 1.369796 2.719576 3.449254 3.932288 4.410432 5.147139 6.536171 9.219417 14.216751 23.034770 37.675294 60.431017 93.268010 136.242151 183.969223 217.555440 201.195579 118.088096 36.211534 19.152169 19.152169 19.152169 -0.000000 -0.000000 -0.000000 -0.000000 -0.000000 0.000000 0.000000 -0.000000 0.000000 0.000000 0.000000 0.000000 0.000000 0.000000 0.000000 -0.000000 -0.000000 -0.000000 -0.000000 -0.000000 -0.000000 -0.000000 -0.000000 -0.000000 0.000000 0.000000 -0.000000 -0.000000 -0.000000 -0.000000 -0.000000 -0.000000 -0.000000 -0.000000 -0.000000 -0.000000 -0.000000 -0.000000 -0.000000 -0.000000 -0.000000 -0.000000 -0.000000 -0.000000 -0.000000 -0.000000 -0.000000 -0.000000 -0.000000 -0.000000 -0.000000 -0.000000 -0.000000 -0.000000 -0.000000 -0.000000 -0.000000 -0.000000 -0.000000 -0.000000 -0.000000 -0.000000 -0.000000 -0.000000 -0.000000 -0.000000 -0.000000 -0.000000 -0.000000 -0.000000 -0.000000 -0.000000 -0.000000 -0.000001 -0.000011 -0.000128 -0.001210 -0.009483 -0.061493 -0.329849 -1.456535 -5.232571 -14.927004 -32.104636 -47.973492 -45.385659 -25.455585 -9.042170 -1.594087 1.369796 2.719576 3.449254 3.932288 4.410432 5.147139 6.536171 9.219417 14.216751 23.034770 37.675294 60.431017 93.268010 136.242151 183.969223 217.555440 201.195579 118.088096 36.211534 19.152169 19.152169 19.152169 -0.000000 -0.000000 -0.000000 -0.000000 -0.000000 0.000000 0.000000 -0.000000 0.000000 0.000000 0.000000 0.000000 0.000000 0.000000 0.000000 -0.000000 -0.000000 -0.000000 -0.000000 -0.000000 -0.000000 -0.000000 -0.000000 -0.000000 0.000000 0.000000 -0.000000 -0.000000 -0.000000 -0.000000 -0.000000 -0.000000 -0.000000 -0.000000 -0.000000 -0.000000 -0.000000 -0.000000 -0.000000 -0.000000 -0.000000 -0.000000 -0.000000 -0.000000 -0.000000 -0.000000 -0.000000 -0.000000 -0.000000 -0.000000 -0.000000 -0.000000 -0.000000 -0.000000 -0.000000 -0.000000 -0.000000 -0.000000 -0.000000 -0.000000 -0.000000 -0.000000 -0.000000 -0.000000 -0.000000 -0.000000 -0.000000 -0.000000 -0.000000 -0.000000 -0.000000 -0.000000 -0.000000 -0.000001 -0.000011 -0.000128 -0.001210 -0.009483 -0.061493 -0.329849 -1.456535 -5.232571 -14.927004 -32.104636 -47.973492 -45.385659 -25.455585 -9.042170 -1.594087 1.369796 2.719576 3.449254 3.932288 4.410432 5.147139 6.536171 9.219417 14.216751 23.034770 37.675294 60.431017 93.268010 136.242151 183.969223 217.555440 201.195579 118.088096 36.211534 19.152169 19.152169 19.152169 -2076.235907 -102.140498 236.716060 47.831203 32.936434 46.473793 53.638352 59.689543 63.679044 66.428544 68.118456 69.002393 69.420121 69.595451 69.658373 69.676365 69.679168 69.678116 69.676779 69.675909 69.675455 69.675251 69.675182 69.675213 69.675416 69.676101 69.678235 69.684622 69.703058 69.754331 69.891488 70.243736 71.110455 73.149012 77.720452 87.466632 107.161076 144.735058 212.113701 325.238862 501.756292 755.188188 1090.620928 1490.363992 1908.089056 2352.464019 2659.861918 3117.354552 3286.004422 3657.219696 3899.377567 1636.924896 340.552805 194.592296 194.592296 194.592296 1288.974969 55.618930 -135.011229 -56.676625 20.212243 25.400025 36.421106 50.038879 59.321558 65.807448 69.710614 71.746543 72.713468 73.118937 73.264150 73.305481 73.311709 73.309101 73.305911 73.303847 73.302778 73.302306 73.302179 73.302368 73.303218 73.305981 73.314427 73.339285 73.409811 73.602438 74.108056 75.381038 78.448572 85.506711 100.971839 133.147964 196.509697 314.114652 518.997319 852.571106 1355.507077 2052.657697 2942.572102 3949.933220 4976.666714 6046.801724 6713.764848 7894.960478 7969.233781 9819.331184 9954.918195 4119.204349 641.974657 299.521604 299.521604 299.521604 -282.419792 -509.625617 15.915504 -2.233199 9.900170 12.001550 29.354332 46.028969 56.684120 64.349859 69.012717 71.460078 72.639481 73.140802 73.322842 73.375854 73.384451 73.381499 73.377576 73.374983 73.373621 73.373017 73.372863 73.373142 73.374353 73.378257 73.390118 73.424807 73.522577 73.787778 74.478856 76.205514 80.332952 89.749720 110.199228 152.348777 234.539567 385.504000 645.657220 1064.614770 1688.283745 2541.822234 3625.083004 4828.842109 6047.424795 7427.924099 8125.663228 9842.801370 9830.334259 11836.167257 12518.653231 5057.682921 839.751233 404.652003 404.652003 404.652003 72.729213 203.241511 83.107875 -38.649392 -3.373338 3.814717 16.501251 28.099951 36.465398 43.042199 47.115207 49.313100 50.404094 50.877191 51.052444 51.104747 51.113628 51.110870 51.106992 51.104380 51.102990 51.102372 51.102229 51.102581 51.104032 51.108669 51.122662 51.163300 51.276981 51.582842 52.372850 54.327670 58.951094 69.376282 91.721284 137.107498 224.157713 381.019916 645.387890 1060.372193 1658.617686 2445.003995 3405.714015 4409.072013 5337.312099 6497.087907 6885.044365 8324.716723 8452.294274 10106.363599 10809.552906 4635.057535 846.166578 439.128619 439.128619 439.128619 -35.054396 -65.216303 -78.222242 -25.004936 6.265579 4.614991 15.999875 26.303699 34.095956 39.985002 43.536651 45.465280 46.420764 46.830313 46.979607 47.022200 47.027702 47.023873 47.019684 47.016987 47.015575 47.014957 47.014835 47.015257 47.016936 47.022265 47.038289 47.084667 47.213940 47.560427 48.451766 50.647907 55.818593 67.421942 92.165779 142.154324 237.493363 408.272105 694.285736 1140.552012 1780.081243 2614.938788 3634.280494 4707.038688 5689.366022 6966.771077 7511.050405 8999.106137 9188.764442 10967.465631 11531.023387 4915.173706 880.994580 455.427856 455.427856 455.427856 7.144238 9.846606 11.335394 6.958793 -3.076757 -0.474438 10.862021 18.887557 25.314931 30.026128 32.835801 34.372266 35.124100 35.439680 35.551024 35.579781 35.580903 35.575994 35.571674 35.569039 35.567693 35.567117 35.567028 35.567515 35.569377 35.575252 35.592868 35.643725 35.785101 36.162960 37.132094 39.512293 45.097250 57.584524 84.108387 137.462757 238.744019 419.218038 719.616517 1185.041970 1846.569654 2699.725947 3726.531024 4793.066157 5731.383912 6932.395650 7421.890825 8840.089559 8897.396167 10542.293927 11222.933424 4854.253177 889.587561 466.343837 466.343837 466.343837 -3.284367 -0.331286 -9.320250 -12.754217 -6.828623 2.586251 10.159655 15.925884 20.958405 24.441494 26.496340 27.614470 28.147136 28.363081 28.434395 28.448864 28.445797 28.440090 28.435849 28.433404 28.432188 28.431683 28.431639 28.432182 28.434187 28.440481 28.459314 28.513582 28.664153 29.065788 30.093760 32.612966 38.510549 51.665086 79.535288 135.445839 241.272987 429.266287 741.083163 1222.271393 1903.388042 2776.941519 3820.007791 4898.966337 5843.542558 7039.090055 7525.012453 8980.982846 9091.790730 10754.522568 11395.270999 4930.889179 903.579725 473.933663 473.933663 473.933663 -5.330247 -6.380151 -8.659644 -5.554046 -0.457251 3.858262 8.274289 12.779125 16.413864 18.764071 20.148917 20.887523 21.224974 21.354122 21.391149 21.393957 21.387911 21.381946 21.378025 21.375875 21.374835 21.374420 21.374424 21.375016 21.377129 21.383732 21.403459 21.460225 21.617514 22.036489 23.107316 25.727711 31.852957 45.494210 74.349907 132.142545 241.346144 435.002105 755.608107 1249.272814 1946.508874 2838.436427 3898.435671 4989.654915 5941.067738 7138.080473 7610.042289 9043.342884 9139.847532 10801.715585 11451.410604 4965.869921 912.657141 479.300566 479.300566 479.300566 -2.407610 -1.938091 -2.716552 -1.764809 0.412516 3.476226 7.131981 10.343925 12.622807 14.078036 14.933124 15.369561 15.556967 15.621267 15.633631 15.628850 1