<VTKFile type="PolyData">
<PolyData>
<Piece NumberOfPoints="8632" NumberOfVerts="8632" NumberOfLines="0" NumberOfStrips="0" NumberOfPolys="0">
<PointData>
<DataArray type="Float64" Name="Pressure" format="ascii">
 -0.000000 -0.000000 -0.000000 -0.000000 -0.000000 -0.000000 -0.000001 -0.000001 -0.000002 -0.000005 -0.000011 -0.000022 -0.000045 -0.000090 -0.000176 -0.000340 -0.000650 -0.001225 -0.002277 -0.004176 -0.007556 -0.013489 -0.023761 -0.041293 -0.070798 -0.119754 -0.199820 -0.328879 -0.533868 -0.854636 -1.349016 -2.099311 -3.220263 -4.868435 -7.252689 -10.645114 -15.391353 -21.918847 -30.741100 -42.455746 -57.734017 -77.299283 -101.892607 -132.223881 -168.908081 -212.387818 -262.845874 -320.114727 -383.593065 -452.178012 -524.208542 -597.376781 -668.478614 -732.718916 -782.037152 -802.560919 -774.160849 -675.355088 -518.483716 -392.401241 -353.634163 -322.968645 -250.126379 -218.446730 -238.864509 -177.260785 46.406085 334.763824 628.814348 1035.069765 1512.602127 1966.200437 2441.273046 2902.459535 3374.025634 3886.850857 4400.752577 4908.279899 5441.745252 6005.635379 6586.864910 7181.528721 7781.404144 8387.437937 8995.538183 9601.320137 10207.663393 10815.347595 11426.809645 12042.355200 12655.079852 13252.706907 13819.504813 14342.745390 14824.522948 15285.493191 15737.575143 16155.603728 16498.083897 16751.114783 16907.346557 16909.149867 16678.880129 16203.032400 15553.460922 14845.932758 14147.072870 13640.915727 13538.981828 13538.981828 13538.981828 -0.000000 -0.000000 -0.000000 -0.000000 -0.000000 -0.000000 -0.000001 -0.000001 -0.000002 -0.000005 -0.000011 -0.000022 -0.000045 -0.000090 -0.000176 -0.000340 -0.000650 -0.001225 -0.002277 -0.004176 -0.007556 -0.013489 -0.023761 -0.041293 -0.070798 -0.119754 -0.199820 -0.328879 -0.533868 -0.854636 -1.349016 -2.099311 -3.220263 -4.868435 -7.252689 -10.645114 -15.391353 -21.918847 -30.741100 -42.455746 -57.734017 -77.299283 -101.892607 -132.223881 -168.908081 -212.387818 -262.845874 -320.114727 -383.593065 -452.178012 -524.208542 -597.376781 -668.478614 -732.718916 -782.037152 -802.560919 -774.160849 -675.355088 -518.483716 -392.401241 -353.634163 -322.968645 -250.126379 -218.446730 -238.864509 -177.260785 46.406085 334.763824 628.814348 1035.069765 1512.602127 1966.200437 2441.273046 2902.459535 3374.025634 3886.850857 4400.752577 4908.279899 5441.745252 6005.635379 6586.864910 7181.528721 7781.404144 8387.437937 8995.538183 9601.320137 10207.663393 10815.347595 11426.809645 12042.355200 12655.079852 13252.706907 13819.504813 14342.745390 14824.522948 15285.493191 15737.575143 16155.603728 16498.083897 16751.114783 16907.346557 16909.149867 16678.880129 16203.032400 15553.460922 14845.932758 14147.072870 13640.915727 13538.981828 13538.981828 13538.981828 -0.000000 -0.000000 -0.000000 -0.000000 -0.000000 -0.000000 -0.000001 -0.000001 -0.000002 -0.000005 -0.000011 -0.000022 -0.000045 -0.000090 -0.000176 -0.000340 -0.000650 -0.001225 -0.002277 -0.004176 -0.007556 -0.013489 -0.023761 -0.041293 -0.070798 -0.119754 -0.199820 -0.328879 -0.533868 -0.854636 -1.349016 -2.099311 -3.220263 -4.868435 -7.252689 -10.645114 -15.391353 -21.918847 -30.741100 -42.455746 -57.734017 -77.299283 -101.892607 -132.223881 -168.908081 -212.387818 -262.845874 -320.114727 -383.593065 -452.178012 -524.208542 -597.376781 -668.478614 -732.718916 -782.037152 -802.560919 -774.160849 -675.355088 -518.483716 -392.401241 -353.634163 -322.968645 -250.126379 -218.446730 -238.864509 -177.260785 46.406085 334.763824 628.814348 1035.069765 1512.602127 1966.200437 2441.273046 2902.459535 3374.025634 3886.850857 4400.752577 4908.279899 5441.745252 6005.635379 6586.864910 7181.528721 7781.404144 8387.437937 8995.538183 9601.320137 10207.663393 10815.347595 11426.809645 12042.355200 12655.079852 13252.706907 13819.504813 14342.745390 14824.522948 15285.493191 15737.575143 16155.603728 16498.083897 16751.114783 16907.346557 16909.149867 16678.880129 16203.032400 15553.460922 14845.932758 14147.072870 13640.915727 13538.981828 13538.981828 13538.981828 -0.000000 -0.000000 -0.000000 -0.000000 -0.000000 -0.000000 -0.000001 -0.000001 -0.000002 -0.000005 -0.000011 -0.000022 -0.000045 -0.000089 -0.000175 -0.000339 -0.000647 -0.001219 -0.002266 -0.004156 -0.007523 -0.013432 -0.023665 -0.041134 -0.070540 -0.119338 -0.199163 -0.327857 -0.532304 -0.852281 -1.345530 -2.094243 -3.213026 -4.858292 -7.238744 -10.626320 -15.366536 -21.886762 -30.700521 -42.405585 -57.673482 -77.228073 -101.811144 -132.133577 -168.811672 -212.289848 -262.753549 -320.039798 -383.556440 -452.221443 -524.423963 -597.978163 -669.970430 -736.259058 -789.747543 -817.212957 -796.722594 -695.674927 -502.494957 -352.399643 -350.022652 -341.655505 -229.876969 -195.551088 -263.960998 -239.845513 9.306158 310.369739 545.177890 956.001352 1462.574671 1884.277118 2381.531065 2825.519094 3268.838500 3782.800520 4281.122997 4751.659964 5259.947477 5814.529099 6378.488145 6967.787528 7555.419683 8160.297489 8771.162715 9381.020201 9996.110805 10613.839034 11241.534740 11879.602859 12516.032310 13130.447729 13703.680648 14227.272917 14705.469429 15169.543473 15638.489833 16073.386401 16414.895546 16663.803044 16844.520470 16880.269616 16649.800635 16152.237024 15495.114424 14797.610234 14175.439111 13722.079721 13630.243953 13630.243953 13630.243953 -0.000000 -0.000000 -0.000000 -0.000000 -0.000000 -0.000000 -0.000000 -0.000001 -0.000002 -0.000005 -0.000010 -0.000021 -0.000042 -0.000084 -0.000165 -0.000320 -0.000613 -0.001158 -0.002158 -0.003966 -0.007193 -0.012869 -0.022718 -0.039564 -0.067978 -0.115220 -0.192648 -0.317712 -0.516764 -0.828871 -1.310866 -2.043811 -3.140975 -4.757258 -7.099770 -10.438917 -15.118955 -21.566536 -30.295333 -41.904490 -57.068493 -76.516103 -100.996290 -131.229818 -167.846195 -211.307776 -261.826303 -319.283334 -383.175936 -452.624639 -526.506783 -603.830561 -684.580876 -771.349657 -872.876147 -985.375508 -1069.961667 -1073.077726 -370.794140 297.885798 -317.042177 -805.646568 75.124779 348.820150 -577.384137 -1223.473619 -430.221486 503.049870 -710.753707 -205.727938 1360.645873 516.624080 1888.224231 1944.155504 1791.796425 2473.655669 2772.474880 2828.324366 3023.271881 3577.235007 3955.998834 4462.117017 4876.103335 5498.061650 6189.505548 6849.640276 7579.801576 8280.357428 9040.891042 9908.207695 10794.793375 11568.850546 12144.734196 12600.654113 12970.517614 13401.093056 14042.914264 14696.992076 15038.415451 15239.648511 15860.397324 16467.932732 16154.412451 15438.112383 15023.576522 13718.865789 13969.375193 14579.932913 14658.889192 14658.889192 14658.889192 -0.000000 -0.000000 -0.000000 -0.000000 -0.000000 -0.000000 -0.000000 -0.000001 -0.000002 -0.000004 -0.000009 -0.000019 -0.000039 -0.000078 -0.000154 -0.000301 -0.000577 -0.001092 -0.002040 -0.003759 -0.006832 -0.012253 -0.021678 -0.037838 -0.065154 -0.110673 -0.185439 -0.306463 -0.499498 -0.802808 -1.272195 -1.987439 -3.060277 -4.643882 -6.943528 -10.227844 -14.839609 -21.204611 -29.836638 -41.336348 -56.381566 -75.706641 -100.068840 -130.200510 -166.747064 -210.193393 -260.786289 -318.470360 -382.874285 -453.422753 -529.730575 -612.622522 -706.594734 -825.785414 -1010.362973 -1223.089226 -1457.368818 -1817.135131 -592.240725 1088.672970 -354.491145 -1743.865279 462.001926 1379.278719 -971.951547 -3262.170349 -1382.179571 1850.718475 -3540.689126 -2742.314003 2189.360265 -4077.842315 2026.404085 1526.571926 -2134.364103 984.557452 257.596822 300.275515 -1379.563210 2203.803061 -452.547019 2130.676869 932.070634 2385.222343 3053.313074 3898.553129 4721.110097 5257.224251 5928.586105 6830.511887 7964.997389 8870.034833 8866.958091 8783.844156 8716.118323 8674.497959 10055.103366 11668.952206 12498.402011 11863.638712 12858.473834 14986.325299 13956.567020 12020.242269 15420.025876 8556.440113 8693.248725 15400.321710 16188.050930 16188.050930 16188.050930 -0.000000 -0.000000 -0.000000 -0.000000 -0.000000 -0.000000 -0.000000 -0.000000 -0.000000 -0.000000 -0.000000 -0.000000 -0.000000 -0.000000 -0.000000 -0.000000 -0.000000 -0.000000 0.000000 0.000000 0.000000 0.000000 -0.000000 -0.000000 0.000000 0.000000 0.000000 0.000000 0.000000 0.000000 0.000000 0.000000 0.000000 0.000000 0.000000 0.000000 0.000000 0.000000 0.000000 0.000000 0.000000 0.000000 0.000000 0.000000 0.000000 0.000000 0.000000 0.000000 0.000000 0.000000 0.000000 0.000000 0.000000 0.000000 0.000000 0.000000 0.000000 0.000000 0.000000 0.000000 0.000000 0.000000 0.000000 0.000000 0.000000 0.000000 0.000000 0.000000 0.000000 0.000000 0.000000 0.000000 0.000000 0.000000 0.000000 0.000000 0.000000 0.000000 0.000000 0.000000 0.000000 0.000000 0.000000 0.000000 0.000000 0.000000 0.000000 0.000000 0.000000 0.000000 0.000000 0.000000 0.000000 0.000000 0.000000 0.000000 0.000000 0.000000 0.000000 0.000000 0.000000 0.000000 0.000000 0.000000 0.000000 0.000000 0.000000 0.000000 0.000000 0.000000 0.000000 0.000000 0.000000 0.000000 0.000000 0.000000 0.000000 0.000000 0.000000 0.000000 0.000000 0.000000 0.000000 0.000000 0.000000 0.000000 0.000000 0.000000 0.000000 0.000000 0.000000 0.000000 0.000000 0.000000 0.000000 0.000000 0.000000 0.000000 0.000000 0.000000 0.000000 0.000000 0.000000 0.000000 0.000000 0.000000 0.000000 0.000000 0.000000 0.000000 0.000000 0.000000 0.000000 -0.000000 0.000000 0.000000 0.000000 0.000000 0.000000 -0.000000 0.000000 0.000000 0.000000 0.000000 0.000000 -0.000000 0.000000 0.000000 0.000000 0.000000 0.000000 -0.000000 0.000000 0.000000 0.000000 0.000000 0.000000 -0.000000 0.000000 0.000000 0.000000 0.000000 0.000000 -0.000000 0.000000 0.000000 0.000000 0.000000 0.000000 -0.000000 0.000000 0.000000 0.000000 0.000000 0.000000 -0.000000 0.000000 0.000000 0.000000 0.000000 0.000000 -0.000000 0.000000 0.000000 0.000000 0.000000 0.000000 -0.000000 0.000000 0.000000 0.000000 0.000000 0.000000 -0.000000 0.000000 0.000000 0.000000 0.000000 0.000000 -0.000000 0.000000 0.000000 0.000000 0.000000 0.000000 -0.000000 0.000000 0.000000 0.000000 0.000000 0.000000 0.000000 0.000000 0.000000 -0.000000 -0.000000 -0.000000 0.000000 -0.000000 0.000000 -0.000000 -0.000000 -0.000000 -0.000000 -0.000000 -0.000000 -0.000000 -0.000000 -0.000000 -0.000000 -0.000000 -0.000000 -0.000000 -0.000000 -0.000000 -0.000000 -0.000000 -0.000000 -0.000000 -0.000000 -0.000000 -0.000000 -0.000000 -0.000000 -0.000000 -0.000000 -0.000000 -0.000000 -0.000000 -0.000000 -0.000000 -0.000000 -0.000000 -0.000000 -0.000000 -0.000000 -0.000000 -0.000000 -0.000000 -0.000000 -0.000000 -0.000000 -0.000000 -0.000000 -0.000000 -0.000000 -0.000000 -0.000000 -0.000000 -0.000000 -0.000000 -0.000000 -0.000000 -0.000000 -0.000000 -0.000000 -0.000000 -0.000000 -0.000000 -0.000000 -0.000000 -0.000000 -0.000000 -0.000000 -0.000000 -0.000000 -0.000000 -0.000000 -0.000000 -0.000000 -0.000000 -0.000000 -0.000000 -0.000000 -0.000000 -0.000000 -0.000000 -0.000000 -0.000000 -0.000000 -0.000000 -0.000000 -0.000000 -0.000000 -0.000000 -0.000000 -0.000000 -0.000000 -0.000000 -0.000000 -0.000000 -0.000000 -0.000000 -0.000000 -0.000000 -0.000000 -0.000000 -0.000000 -0.000000 -0.000000 -0.000000 -0.000000 -0.000000 -0.000000 -0.000000 -0.000000 -0.000000 -0.000000 -0.000000 -0.000000 -0.000000 -0.000000 -0.000000 -0.000000 -0.000000 -0.000000 -0.000000 -0.000000 -0.000000 -0.000000 -0.000000 -0.000000 -0.000000 -0.000000 -0.000000 -0.000000 -0.000000 -0.000000 -0.000000 -0.000000 -0.000000 -0.000000 -0.000000 -0.000000 -0.000000 -0.000000 -0.000000 -0.000000 -0.000000 -0.000000 -0.000000 -0.000000 -0.000000 -0.000000 -0.000000 -0.000000 -0.000000 -0.000000 -0.000000 -0.000000 -0.000000 -0.000000 -0.000000 -0.000000 -0.000000 -0.000000 -0.000000 -0.000000 -0.000000 -0.000000 -0.000000 -0.000000 -0.000000 -0.000000 -0.000000 -0.000000 -0.000000 -0.000000 -0.000000 -0.000000 -0.000000 -0.000000 -0.000000 -0.000000 -0.000000 -0.000000 -0.000000 -0.000000 -0.000000 -0.000000 -0.000000 -0.000000 -0.000000 -0.000000 -0.000000 -0.000000 -0.000000 -0.000000 -0.000000 -0.000000 -0.000000 -0.000000 -0.000000 -0.000000 -0.000000 -0.000000 -0.000000 -0.000000 -0.000000 -0.000000 -0.000000 -0.000000 -0.000000 -0.000000 -0.000000 -0.000000 -0.000000 -0.000000 -0.000000 -0.000000 -0.000000 -0.000000 -0.000000 -0.000000 -0.000000 -0.000000 -0.000000 -0.000000 -0.000000 -0.000000 -0.000000 -0.000000 -0.000000 -0.000000 -0.000000 -0.000000 -0.000000 -0.000000 -0.000000 -0.000000 -0.000000 -0.000000 -0.000000 -0.000000 -0.000000 -0.000000 -0.000000 -0.000000 -0.000000 -0.000000 -0.000000 -0.000000 -0.000000 -0.000000 -0.000000 -0.000000 -0.000000 -0.000000 -0.000000 -0.000000 -0.000000 -0.000000 -0.000000 -0.000000 -0.000000 -0.000000 -0.000000 -0.000000 -0.000000 -0.000000 -0.000000 -0.000000 -0.000000 -0.000000 -0.000000 -0.000000 -0.000000 -0.000000 -0.000000 -0.000000 -0.000000 -0.000000 -0.000000 -0.000000 -0.000000 -0.000000 -0.000000 -0.000000 -0.000000 -0.000000 -0.000000 -0.000000 -0.000000 -0.000000 -0.000000 -0.000000 -0.000000 -0.000000 -0.000000 -0.000000 -0.000000 -0.000000 -0.000000 -0.000000 -0.000000 -0.000000 -0.000000 -0.000000 -0.000000 -0.000000 -0.000000 -0.000000 -0.000000 -0.000000 -0.000000 -0.000000 -0.000000 -0.000000 -0.000000 -0.000000 -0.000000 -0.000000 -0.000000 -0.000000 -0.000000 -0.000000 -0.000000 -0.000000 -0.000000 -0.000000 -0.000000 -0.000000 -0.000000 -0.000000 -0.000000 -0.000000 -0.000000 -0.000000 -0.000000 -0.000000 -0.000000 -0.000000 -0.000000 -0.000000 -0.000000 -0.000000 -0.000000 -0.000000 -0.000000 -0.000000 -0.000000 -0.000000 -0.000000 -0.000000 -0.000000 -0.000000 -0.000000 -0.000000 -0.000000 -0.000000 -0.000000 -0.000000 -0.000000 -0.000000 -0.000000 -0.000000 -0.000000 -0.000000 -0.000000 -0.000000 -0.000000 -0.000000 -0.000000 -0.000000 -0.000000 -0.000000 -0.000000 -0.000000 -0.000000 -0.000000 -0.000000 -0.000000 -0.000000 -0.000000 -0.000000 -0.000000 -0.000000 -0.000000 -0.000000 -0.000000 -0.000000 -0.000000 -0.000000 -0.000000 -0.000000 -0.000000 -0.000000 -0.000000 -0.000000 -0.000000 -0.000000 -0.000000 -0.000000 -0.000000 -0.000000 -0.000000 -0.000000 -0.000000 -0.000000 -0.000000 -0.000000 -0.000000 -0.000000 -0.000000 -0.000000 -0.000000 -0.000000 -0.000000 -0.000000 -0.000000 -0.000000 -0.000000 -0.000000 -0.000000 -0.000000 -0.000000 -0.000000 -0.000000 -0.000000 -0.000000 -0.000000 -0.000000 -0.000000 -0.000000 -0.000000 -0.000000 -0.000000 -0.000000 -0.000000 -0.000000 -0.000000 -0.000000 -0.000000 -0.000000 -0.000000 -0.000000 -0.000000 -0.000000 -0.000000 -0.000000 -0.000000 -0.000000 -0.000000 -0.000000 -0.000000 -0.000000 -0.000000 -0.000000 -0.000000 -0.000000 -0.000000 -0.000000 -0.000000 -0.000000 -0.000000 -0.000000 -0.000000 -0.000000 -0.000000 -0.000000 -0.000000 -0.000000 -0.000000 -0.000000 -0.000000 -0.000000 -0.000000 -0.000000 -0.000000 -0.000000 -0.000000 -0.000000 -0.000000 -0.000000 -0.000000 -0.000000 -0.000000 -0.000000 -0.000000 -0.000000 -0.000000 -0.000000 -0.000000 -0.000000 -0.000000 -0.000000 -0.000000 -0.000000 -0.000000 -0.000000 -0.000000 -0.000000 -0.000000 -0.000000 -0.000000 -0.000000 -0.000000 -0.000000 -0.000000 -0.000000 -0.000000 -0.000000 -0.000000 -0.000000 -0.000000 -0.000000 -0.000000 -0.000000 -0.000000 -0.000000 -0.000000 -0.000000 -0.000000 -0.000000 -0.000000 -0.000000 -0.000000 -0.000000 -0.000000 -0.000000 -0.000000 -0.000000 -0.000000 -0.000000 -0.000000 -0.000000 -0.000000 -0.000000 -0.000000 -0.000000 -0.000000 -0.000000 -0.000000 -0.000000 -0.000000 -0.000000 -0.000000 -0.000000 -0.000000 -0.000000 -0.000000 -0.000000 -0.000000 -0.000000 -0.000000 -0.000000 -0.000000 -0.000000 -0.000000 -0.000000 -0.000000 -0.000000 -0.000000 -0.000000 -0.000000 -0.000000 -0.000000 -0.000000 -0.000000 -0.000000 -0.000000 -0.000000 -0.000000 -0.000000 -0.000000 -0.000000 -0.000000 -0.000000 -0.000000 -0.000000 -0.000000 -0.000000 -0.000000 -0.000000 -0.000000 -0.000000 -0.000000 -0.000000 -0.000000 -0.000000 -0.000000 -0.000000 -0.000000 -0.000000 -0.000000 -0.000000 -0.000000 -0.000000 -0.000000 -0.000000 -0.000000 -0.000000 -0.000000 -0.000000 -0.000000 -0.000000 -0.000000 -0.000000 -0.000000 -0.000000 -0.000000 -0.000000 -0.000000 -0.000000 -0.000000 -0.000000 -0.000000 -0.000000 -0.000000 -0.000000 -0.000000 -0.000000 -0.000000 -0.000000 -0.000000 -0.000000 -0.000000 -0.000000 -0.000000 -0.000000 -0.000000 -0.000000 -0.000000 -0.000000 -0.000000 -0.000000 -0.000000 -0.000000 -0.000000 -0.000000 -0.000000 -0.000000 -0.000000 -0.000000 -0.000000 -0.000000 -0.000000 -0.000000 -0.000000 -0.000000 -0.000000 -0.000000 -0.000000 -0.000000 -0.000000 -0.000000 -0.000000 -0.000000 -0.000000 -0.000000 -0.000000 -0.000000 -0.000000 -0.000000 -0.000000 -0.000000 -0.000000 -0.000000 -0.000000 -0.000000 -0.000000 -0.000000 -0.000000 -0.000000 -0.000000 -0.000000 -0.000000 -0.000000 -0.000000 -0.000000 -0.000000 -0.000000 -0.000000 -0.000000 -0.000000 -0.000000 -0.000000 -0.000000 -0.000000 -0.000000 -0.000000 -0.000000 -0.000000 -0.000000 -0.000000 -0.000000 -0.000000 -0.000000 -0.000000 -0.000000 -0.000000 -0.000000 -0.000000 -0.000000 -0.000000 -0.000000 -0.000000 -0.000000 -0.000000 -0.000000 -0.000000 -0.000000 -0.000000 -0.000000 -0.000000 -0.000000 -0.000000 -0.000000 -0.000000 -0.000000 -0.000000 -0.000000 -0.000000 -0.000000 -0.000000 -0.000000 -0.000000 -0.000000 -0.000000 -0.000000 -0.000000 -0.000000 -0.000000 -0.000000 0.000000 -0.000000 -0.000000 -0.000000 -0.000000 -0.000000 -0.000000 -0.000000 -0.000000 -0.000000 -0.000000 -0.000000 -0.000000 -0.000000 -0.000000 -0.000000 -0.000000 -0.000000 -0.000000 -0.000000 -0.000000 -0.000000 -0.000000 -0.000000 -0.000000 -0.000000 -0.000000 -0.000000 -0.000000 -0.000000 -0.000000 -0.000000 -0.000000 -0.000000 -0.000000 -0.000000 -0.000000 -0.000000 -0.000000 -0.000000 -0.000000 -0.000000 -0.000000 -0.000000 -0.000000 -0.000000 -0.000000 -0.000000 -0.000000 -0.000000 -0.000000 -0.000000 -0.000000 -0.000000 -0.000000 -0.000000 -0.000000 -0.000000 -0.000000 -0.000000 -0.000000 -0.000000 -0.000000 -0.000000 -0.000000 -0.000000 -0.000000 -0.000000 -0.000000 -0.000000 -0.000000 -0.000000 -0.000000 -0.000000 -0.000000 -0.000000 -0.000000 -0.000000 -0.000000 -0.000000 -0.000000 -0.000000 -0.000000 -0.000000 -0.000000 -0.000000 -0.000000 -0.000000 -0.000000 -0.000000 -0.000000 -0.000000 -0.000000 -0.000000 -0.000000 -0.000000 -0.000000 -0.000000 -0.000000 -0.000000 -0.000000 -0.000000 -0.000000 -0.000000 -0.000000 -0.000000 -0.000000 -0.000000 -0.000000 -0.000000 -0.000000 -0.000000 -0.000000 -0.000000 -0.000000 -0.000000 -0.000000 -0.000000 -0.000000 -0.000000 -0.000000 -0.000000 -0.000000 -0.000000 -0.000000 -0.000000 -0.000000 -0.000000 -0.000000 -0.000000 -0.000000 -0.000000 -0.000000 -0.000000 -0.000000 -0.000000 -0.000000 -0.000000 -0.000000 -0.000000 -0.000000 -0.000000 -0.000000 -0.000000 -0.000000 -0.000000 -0.000000 -0.000000 -0.000000 -0.000000 -0.000000 -0.000000 -0.000000 -0.000000 -0.000000 -0.000000 -0.000000 -0.000000 -0.000000 -0.000000 -0.000000 -0.000000 -0.000000 -0.000000 -0.000000 -0.000000 -0.000000 -0.000000 -0.000000 -0.000000 -0.000000 -0.000000 -0.000000 -0.000000 -0.000000 -0.000000 -0.000000 -0.000000 -0.000000 -0.000000 -0.000000 -0.000000 -0.000000 -0.000000 -0.000000 -0.000000 -0.000000 -0.000000 -0.000000 -0.000000 -0.000000 -0.000000 -0.000000 -0.000000 -0.000000 -0.000000 -0.000000 -0.000000 -0.000000 -0.000000 -0.000000 -0.000000 -0.000000 -0.000000 -0.000000 -0.000000 -0.000000 -0.000000 -0.000000 -0.000000 -0.000000 -0.000000 -0.000000 -0.000000 -0.000000 -0.000000 -0.000000 -0.000000 -0.000000 -0.000000 -0.000000 0.000000 -0.000000 0.000000 -0.000000 -0.000000 -0.000000 -0.000000 0.000000 0.000000 -0.000000 -0.000000 -0.000000 0.000000 -0.000000 0.000000 0.000000 0.000000 0.000000 0.000000 -0.000000 -0.000000 -0.000000 -0.000000 -0.000000 -0.000000 -0.000000 -0.000000 -0.000000 -0.000000 -0.000000 -0.000000 -0.000000 -0.000000 -0.000000 -0.000000 -0.000000 -0.000000 -0.000000 -0.000000 -0.000000 -0.000000 -0.000000 -0.000000 -0.000000 -0.000000 -0.000000 -0.000000 -0.000000 -0.000000 -0.000000 -0.000000 -0.000000 -0.000001 -0.000002 -0.000005 -0.000009 -0.000019 -0.000038 -0.000074 -0.000143 -0.000270 -0.000504 -0.000925 -0.001667 -0.002951 -0.005134 -0.008770 -0.014710 -0.024213 -0.039103 -0.061929 -0.096146 -0.146257 -0.217887 -0.317703 -0.453107 -0.631571 -0.859495 -1.140411 -1.472274 -1.843405 -2.226257 -2.567522 -2.772090 -2.677089 -2.011149 -0.334186 3.043617 9.155244 19.454476 35.817468 60.368068 94.996816 140.456550 195.001318 252.691434 301.814849 324.984685 305.132540 244.946117 185.023997 656.705513 1490.130898 3229.223134 3960.383419 5353.814348 6770.106130 7578.624659 9593.358932 11463.468541 11304.101973 13833.504329 15186.876087 16879.872623 17899.961093 22007.609592 24196.468924 18193.547397 19027.996358 19496.447217 17807.826814 15337.207524 11949.896791 11065.272049 11065.272049 11065.272049 0.000000 0.000000 0.000000 0.000000 -0.000000 -0.000000 -0.000000 -0.000000 -0.000000 -0.000000 -0.000000 -0.000000 -0.000000 -0.000000 -0.000000 -0.000000 -0.000000 -0.000000 -0.000000 -0.000000 -0.000000 -0.000000 -0.000000 -0.000000 -0.000000 -0.000000 -0.000000 -0.000000 -0.000000 -0.000000 -0.000000 -0.000000 -0.000000 -0.000000 -0.000000 -0.000000 -0.000001 -0.000001 -0.000002 -0.000005 -0.000010 -0.000020 -0.000040 -0.000078 -0.000151 -0.000285 -0.000531 -0.000970 -0.001744 -0.003079 -0.005342 -0.009101 -0.015223 -0.024992 -0.040253 -0.063586 -0.098465 -0.149408 -0.222027 -0.322949 -0.459480 -0.638927 -0.867431 -1.148131 -1.478403 -1.845680 -2.221014 -2.548830 -2.730335 -2.596839 -1.868263 -0.092490 3.435199 9.763704 20.361248 37.118533 62.193758 97.600603 144.479751 202.113994 266.943329 332.146655 389.126226 434.157231 485.726768 632.584126 1002.423905 1980.237515 2959.574062 3322.205102 4326.582290 5066.625673 5725.879696 6935.208808 8135.357273 8519.787218 9416.248860 10428.248652 11495.165768 12402.325457 15619.887477 17235.805126 14603.694195 15012.218631 15991.677740 15110.033717 13072.394523 10456.648061 9985.805123 9985.805123 9985.805123 0.000000 0.000000 0.000000 0.000000 0.000000 0.000000 0.000000 0.000000 -0.000000 0.000000 0.000000 0.000000 0.000000 0.000000 -0.000000 -0.000000 -0.000000 -0.000000 -0.000000 -0.000000 -0.000000 -0.000000 -0.000000 -0.000000 -0.000000 -0.000000 -0.000000 -0.000000 -0.000000 -0.000000 -0.000000 -0.000000 -0.000000 -0.000000 -0.000000 -0.000000 -0.000001 -0.000001 -0.000003 -0.000005 -0.000011 -0.000022 -0.000043 -0.000084 -0.000161 -0.000303 -0.000562 -0.001024 -0.001835 -0.003230 -0.005586 -0.009488 -0.015823 -0.025898 -0.041591 -0.065506 -0.101146 -0.153039 -0.226786 -0.328962 -0.466759 -0.647295 -0.876405 -1.156775 -1.485098 -1.847762 -2.214162 -2.526042 -2.680277 -2.501378 -1.699193 0.192125 3.893911 10.471972 21.407819 38.601198 64.231574 100.410313 148.619276 209.081905 280.436905 360.337657 447.879584 548.980630 685.207649 900.101016 1249.943677 1741.532354 2280.025794 2807.645183 3368.426605 3944.641580 4540.186018 5175.257437 5786.298163 6334.037205 6861.917345 7365.938896 7863.852621 8443.880012 9177.711873 9718.033761 10202.640318 10816.196946 11139.855136 10696.891959 9966.926985 9469.061037 9411.108878 9411.108878 9411.108878 -0.000000 -0.000000 -0.000000 -0.000000 -0.000000 0.000000 0.000000 -0.000000 -0.000000 0.000000 0.000000 0.000000 0.000000 0.000000 -0.000000 -0.000000 -0.000000 -0.000000 -0.000000 -0.000000 -0.000000 -0.000000 -0.000000 -0.000000 -0.000000 -0.000000 -0.000000 -0.000000 -0.000000 -0.000000 -0.000000 -0.000000 -0.000000 -0.000000 -0.000000 -0.000000 -0.000001 -0.000001 -0.000003 -0.000005 -0.000011 -0.000022 -0.000044 -0.000085 -0.000163 -0.000306 -0.000568 -0.001034 -0.001852 -0.003258 -0.005631 -0.009559 -0.015932 -0.026063 -0.041832 -0.065852 -0.101629 -0.153692 -0.227641 -0.330040 -0.468062 -0.648788 -0.878001 -1.158304 -1.486264 -1.848079 -2.212843 -2.521809 -2.671063 -2.483885 -1.668309 0.243968 3.977207 10.600101 21.596198 38.866078 64.591189 100.896092 149.313644 210.212655 282.574864 364.748497 456.990206 566.495857 714.081667 936.100316 1269.086386 1711.576667 2207.558485 2717.870352 3250.241372 3799.560515 4366.034521 4948.040224 5514.835844 6044.044943 6542.086195 7011.343068 7470.587447 7963.199023 8491.182459 8967.908891 9455.240571 10011.916700 10249.773033 9995.276270 9606.169039 9373.306625 9333.936161 9333.936161 9333.936161 -0.000000 -0.000000 -0.000000 -0.000000 -0.000000 0.000000 0.000000 -0.000000 0.000000 0.000000 0.000000 0.000000 0.000000 0.000000 -0.000000 -0.000000 -0.000000 -0.000000 -0.000000 -0.000000 -0.000000 -0.000000 -0.000000 -0.000000 -0.000000 -0.000000 -0.000000 -0.000000 -0.000000 -0.000000 -0.000000 -0.000000 -0.000000 -0.000000 -0.000000 -0.000000 -0.000001 -0.000001 -0.000003 -0.000005 -0.000011 -0.000022 -0.000044 -0.000085 -0.000163 -0.000306 -0.000568 -0.001034 -0.001852 -0.003258 -0.005631 -0.009559 -0.015932 -0.026063 -0.041832 -0.065852 -0.101629 -0.153692 -0.227641 -0.330040 -0.468062 -0.648788 -0.878001 -1.158304 -1.486264 -1.848079 -2.212843 -2.521809 -2.671063 -2.483885 -1.668309 0.243968 3.977207 10.600101 21.596198 38.866078 64.591189 100.896092 149.313644 210.212655 282.574864 364.748497 456.990206 566.495857 714.081667 936.100316 1269.086386 1711.576667 2207.558485 2717.870352 3250.241372 3799.560515 4366.034521 4948.040224 5514.835844 6044.044943 6542.086195 7011.343068 7470.587447 7963.199023 8491.182459 8967.908891 9455.240571 10011.916700 10249.773033 9995.276270 9606.169039 9373.306625 9333.936161 9333.936161 9333.936161 -0.000000 -0.000000 -0.000000 -0.000000 -0.000000 0.000000 0.000000 -0.000000 0.000000 0.000000 0.000000 0.000000 0.000000 0.000000 -0.000000 -0.000000 -0.000000 -0.000000 -0.000000 -0.000000 -0.000000 -0.000000 -0.000000 -0.000000 -0.000000 -0.000000 -0.000000 -0.000000 -0.000000 -0.000000 -0.000000 -0.000000 -0.000000 -0.000000 -0.000000 -0.000000 -0.000001 -0.000001 -0.000003 -0.000005 -0.000011 -0.000022 -0.000044 -0.000085 -0.000163 -0.000306 -0.000568 -0.001034 -0.001852 -0.003258 -0.005631 -0.009559 -0.015932 -0.026063 -0.041832 -0.065852 -0.101629 -0.153692 -0.227641 -0.330040 -0.468062 -0.648788 -0.878001 -1.158304 -1.486264 -1.848079 -2.212843 -2.521809 -2.671063 -2.483885 -1.668309 0.243968 3.977207 10.600101 21.596198 38.866078 64.591189 100.896092 149.313644 210.212655 282.574864 364.748497 456.990206 566.495857 714.081667 936.100316 1269.086386 1711.576667 2207.558485 2717.870352 3250.241372 3799.560515 4366.034521 4948.040224 5514.835844 6044.044943 6542.086195 7011.343068 7470.587447 7963.199023 8491.182459 8967.908891 9455.240571 10011.916700 10249.773033 9995.276270 9606.169039 9373.306625 9333.936161 9333.936161 9333.936161 -1286.757956 -1577.919656 -1865.317375 -197.194960 1074.771707 -836.249157 -1639.336781 1038.461113 1060.140691 -1610.564227 -3800.580397 -488.971473 1459.090854 -5290.380622 -1360.218799 1126.528251 -5676.613349 3297.797305 -334.258332 -1610.971647 567.510962 31.003840 -1368.760302 -1272.181359 1781.524650 -633.836133 2480.470431 472.073553 2421.260420 3248.213884 3810.236353 4826.998672 5059.951997 5764.831609 6700.353783 7813.910399 8649.272031 8188.852223 8066.992127 7734.080053 7978.118290 9715.152260 11626.003350 12313.653140 11459.662806 12645.239265 14820.941436 12520.976546 11882.854194 16096.921228 5845.481993 9125.964208 15964.634433 16404.917901 16404.917901 16404.917901 525.954651 202.579990 -324.851345 -391.912573 1170.722315 1314.986739 1543.312959 3106.501124 2720.482008 3268.095033 3958.898180 4261.423904 4292.548122 4749.114844 5237.157834 5695.340674 6371.375735 6648.596803 6872.789917 7049.571568 6821.413786 7296.711820 7588.076625 8062.840736 8478.339180 9080.447130 9178.009787 9659.351923 9985.632232 11697.813357 12596.118373 13626.686145 14666.109913 14961.346067 14134.774151 13700.216196 13544.906813 12607.078228 12470.214627 12790.480929 12655.971792 11230.798869 23162.693892 30491.897500 27031.588256 16663.996896 12674.543989 15986.863594 22068.525303 20073.882793 14474.729325 8319.256930 17066.696882 17822.899336 17822.899336 17822.899336 1243.327108 1801.720530 -2334.764400 -1229.041111 -1644.287222 -17.273729 1514.159398 995.627687 1720.031177 1975.615481 4666.320528 4818.248898 6296.951960 5970.352658 6132.697684 6003.913979 6198.520909 6792.122150 7032.899978 7569.664563 8224.453549 8964.451468 9617.647899 10557.528929 11217.224314 11316.935380 11148.443121 11374.739524 11107.678030 12254.684689 13388.118406 16813.362763 17602.545477 17954.019305 16430.179742 13520.810146 11298.998993 10418.367940 10604.467936 13515.501849 16910.191386 18347.267304 22283.615571 15725.694631 20952.441980 22196.313362 18240.682009 21490.232917 12281.838171 8463.702527 7909.310715 16248.126503 19256.432655 19691.623852 19691.623852 19691.623852 797.349302 -410.888176 473.950735 81.077631 835.992427 38.369118 1866.677414 234.012024 1511.207851 2168.494720 3240.749512 4644.223066 5911.006860 7109.356796 7260.155503 7376.735830 7547.132744 8027.228824 8722.943171 9738.710306 10416.040228 10908.977611 11084.787248 10767.216756 11528.109172 11112.257495 11953.613322 12303.179047 11922.059955 13145.542743 13358.391996 15537.996870 15250.574411 17628.239116 17185.053823 17524.358294 18908.709664 16358.964289 13985.901990 13934.202984 14681.417667 21822.482047 14626.405905 21597.561674 19916.323377 20219.190360 21357.513857 14856.876105 18590.900699 10487.399213 15001.292081 18690.577404 20540.135471 21334.593958 21334.593958 21334.593958 417.123655 -21.232176 85.022838 685.509387 1093.808695 1216.036769 1211.827745 1273.425063 1381.549252 1650.224457 3349.624551 4668.477116 6208.044814 7664.330812 8249.986883 8413.368338 8470.415744 8486.677119 8722.279397 9579.995801 10440.021709 10940.445611 11455.928744 11722.164337 11918.093696 12054.872305 12844.327130 12707.466873 14581.923737 13310.060972 15539.360396 14943.488609 16874.791341 16446.834427 19638.861472 18942.859995 19384.714112 19979.316758 17818.701027 18924.246827 16660.996793 19692.548592 21242.766887 19184.358128 21926.828260 24