<VTKFile type="PolyData">
<PolyData>
<Piece NumberOfPoints="8632" NumberOfVerts="8632" NumberOfLines="0" NumberOfStrips="0" NumberOfPolys="0">
<PointData>
<DataArray type="Float64" Name="Pressure" format="ascii">
 -0.245178 -0.245178 -0.245178 -0.251854 -0.327314 -0.525921 -0.760879 -1.045498 -1.388301 -1.800800 -2.298317 -2.899505 -3.626205 -4.503598 -5.560525 -6.829864 -8.348942 -10.159952 -12.310361 -14.853312 -17.848003 -21.360028 -25.461685 -30.232236 -35.758102 -42.132993 -49.457948 -57.841293 -67.398478 -78.251800 -90.529986 -104.367610 -119.904346 -137.284013 -156.653406 -178.160881 -201.954690 -228.181033 -256.981844 -288.492301 -322.838107 -360.132590 -400.473719 -443.941198 -490.593819 -540.467359 -593.573283 -649.898404 -709.405142 -772.030471 -837.677403 -906.181895 -977.211582 -1050.000933 -1122.749042 -1191.916537 -1252.269619 -1296.086225 -1308.736449 -1263.270951 -1135.121562 -959.521412 -816.684463 -702.582558 -559.053179 -399.381290 -307.096005 -289.208693 -281.162440 -223.953635 -128.018833 -79.365365 -101.971191 -126.721586 -88.691320 -13.459278 16.234614 7.256743 38.194160 132.306620 208.985266 213.390039 195.822261 242.930186 388.049271 563.827886 691.902963 795.218156 963.580746 1281.737548 1759.933925 2310.838148 2850.125331 3353.748671 3832.762238 4327.409517 4880.045017 5484.443167 6096.328994 6693.581595 7279.234095 7853.036685 8408.354751 8924.775521 9364.626522 9719.166597 10028.171984 10241.707395 10283.868947 10283.868947 10283.868947 -0.245178 -0.245178 -0.245178 -0.251854 -0.327314 -0.525921 -0.760879 -1.045498 -1.388301 -1.800800 -2.298317 -2.899505 -3.626205 -4.503598 -5.560525 -6.829864 -8.348942 -10.159952 -12.310361 -14.853312 -17.848003 -21.360028 -25.461685 -30.232236 -35.758102 -42.132993 -49.457948 -57.841293 -67.398478 -78.251800 -90.529986 -104.367610 -119.904346 -137.284013 -156.653406 -178.160881 -201.954690 -228.181033 -256.981844 -288.492301 -322.838107 -360.132590 -400.473719 -443.941198 -490.593819 -540.467359 -593.573283 -649.898404 -709.405142 -772.030471 -837.677403 -906.181895 -977.211582 -1050.000933 -1122.749042 -1191.916537 -1252.269619 -1296.086225 -1308.736449 -1263.270951 -1135.121562 -959.521412 -816.684463 -702.582558 -559.053179 -399.381290 -307.096005 -289.208693 -281.162440 -223.953635 -128.018833 -79.365365 -101.971191 -126.721586 -88.691320 -13.459278 16.234614 7.256743 38.194160 132.306620 208.985266 213.390039 195.822261 242.930186 388.049271 563.827886 691.902963 795.218156 963.580746 1281.737548 1759.933925 2310.838148 2850.125331 3353.748671 3832.762238 4327.409517 4880.045017 5484.443167 6096.328994 6693.581595 7279.234095 7853.036685 8408.354751 8924.775521 9364.626522 9719.166597 10028.171984 10241.707395 10283.868947 10283.868947 10283.868947 -0.245178 -0.245178 -0.245178 -0.251854 -0.327314 -0.525921 -0.760879 -1.045498 -1.388301 -1.800800 -2.298317 -2.899505 -3.626205 -4.503598 -5.560525 -6.829864 -8.348942 -10.159952 -12.310361 -14.853312 -17.848003 -21.360028 -25.461685 -30.232236 -35.758102 -42.132993 -49.457948 -57.841293 -67.398478 -78.251800 -90.529986 -104.367610 -119.904346 -137.284013 -156.653406 -178.160881 -201.954690 -228.181033 -256.981844 -288.492301 -322.838107 -360.132590 -400.473719 -443.941198 -490.593819 -540.467359 -593.573283 -649.898404 -709.405142 -772.030471 -837.677403 -906.181895 -977.211582 -1050.000933 -1122.749042 -1191.916537 -1252.269619 -1296.086225 -1308.736449 -1263.270951 -1135.121562 -959.521412 -816.684463 -702.582558 -559.053179 -399.381290 -307.096005 -289.208693 -281.162440 -223.953635 -128.018833 -79.365365 -101.971191 -126.721586 -88.691320 -13.459278 16.234614 7.256743 38.194160 132.306620 208.985266 213.390039 195.822261 242.930186 388.049271 563.827886 691.902963 795.218156 963.580746 1281.737548 1759.933925 2310.838148 2850.125331 3353.748671 3832.762238 4327.409517 4880.045017 5484.443167 6096.328994 6693.581595 7279.234095 7853.036685 8408.354751 8924.775521 9364.626522 9719.166597 10028.171984 10241.707395 10283.868947 10283.868947 10283.868947 -0.243384 -0.243384 -0.243384 -0.249913 -0.324691 -0.521750 -0.756892 -1.042787 -1.386490 -1.799272 -2.296732 -2.897694 -3.624070 -4.501069 -5.557538 -6.826353 -8.344837 -10.155177 -12.304836 -14.846952 -17.840717 -21.351719 -25.452256 -30.221584 -35.746124 -42.119583 -49.443003 -57.824709 -67.380158 -78.231650 -90.507921 -104.343554 -119.878238 -137.255806 -156.623072 -178.128418 -201.920120 -228.144410 -256.943256 -288.451876 -322.796017 -360.089050 -400.429001 -443.895635 -490.547843 -540.421593 -593.528777 -649.857263 -709.372140 -772.017153 -837.712405 -906.336405 -977.658862 -1051.137866 -1125.220996 -1196.438796 -1259.679514 -1308.843229 -1331.165089 -1294.958894 -1179.586485 -962.388865 -810.602938 -718.166318 -579.324373 -376.070386 -285.642122 -288.059705 -300.637677 -242.275394 -109.844672 -54.833165 -101.519553 -150.559016 -104.190453 2.690544 30.047134 -8.883518 11.045354 136.605724 235.597501 222.020564 172.676748 204.480078 374.442392 581.739293 702.417582 774.557776 911.879957 1225.710777 1745.096147 2340.031469 2901.164642 3412.319691 3877.352367 4350.387645 4898.352151 5516.212142 6133.070752 6729.055271 7320.656521 7902.980535 8466.127679 8994.736296 9428.713999 9751.548535 10035.085564 10243.804951 10285.959902 10285.959902 10285.959902 -0.224135 -0.224135 -0.224135 -0.229244 -0.292964 -0.465924 -0.705392 -1.014134 -1.368288 -1.784077 -2.280943 -2.879621 -3.602760 -4.475819 -5.527706 -6.791283 -8.303830 -10.107483 -12.249648 -14.783412 -17.767917 -21.268707 -25.358041 -30.115148 -35.626427 -41.985578 -49.293646 -57.658978 -67.197064 -78.030262 -90.287383 -104.103114 -119.617271 -136.973849 -156.319854 -177.803897 -201.574524 -227.778278 -256.557474 -288.047721 -322.375188 -359.653717 -399.981853 -443.440007 -490.088036 -539.963742 -593.083174 -649.444433 -709.038479 -771.874771 -838.039805 -907.830339 -982.052250 -1062.563869 -1153.278151 -1248.954092 -1341.396394 -1448.503569 -1583.397581 -1800.042063 -1788.202160 -942.363945 -691.263150 -1010.012076 -879.461266 -3.835915 60.089848 -279.365289 -590.682373 -607.171952 190.637530 382.724651 -102.580614 -536.504042 -429.154697 373.725749 290.193576 -244.313861 -483.092657 218.973214 701.902227 359.884075 -134.043804 -384.567935 164.742860 941.039815 888.063011 538.114748 241.252374 420.347098 1556.865233 2771.132482 3590.528839 4209.697130 4462.571560 4580.715424 5049.153343 5889.511984 6546.965415 7099.154671 7810.946963 8514.403515 9134.526419 9825.807792 10207.302778 10068.425280 10026.907518 10240.681236 10302.660717 10302.660717 10302.660717 -0.197517 -0.197517 -0.197517 -0.201428 -0.246667 -0.367770 -0.593805 -0.966106 -1.343762 -1.765539 -2.262578 -2.858969 -3.578550 -4.447184 -5.493888 -6.751527 -8.257338 -10.053399 -12.187056 -14.711335 -17.685320 -21.174508 -25.251113 -29.994331 -35.490538 -41.833424 -49.124039 -57.470752 -66.989093 -77.801483 -90.036821 -103.829908 -119.320706 -136.653392 -155.975191 -177.434976 -201.181598 -227.361951 -256.118751 -287.588051 -321.896513 -359.158526 -399.473274 -442.922005 -489.565926 -539.445545 -592.583183 -648.992431 -708.703341 -771.824463 -838.693571 -910.246403 -988.934491 -1081.092299 -1203.706048 -1325.491874 -1440.453444 -1613.770496 -1889.121899 -2418.743448 -2179.775234 -454.136688 -391.556749 -1459.530950 -1281.554289 550.439923 582.863035 -271.725448 -1089.391830 -1308.697932 633.136748 1156.239995 -82.709950 -1320.534353 -1163.801020 1193.576327 921.210537 -781.037880 -1891.842700 462.591713 2014.719601 643.110349 -611.811344 -1829.290856 -317.511678 2162.031691 1364.450393 251.371862 -877.538844 -1642.918247 1335.697877 3986.542101 4684.021682 6122.216475 5584.626180 4744.364573 4680.324028 6478.061121 7026.328270 7131.290903 8511.861205 9817.520688 9726.470648 10946.513638 11624.634010 10031.168056 9481.834211 10188.170680 10317.409185 10317.409185 10317.409185 -0.193885 -0.193885 -0.193885 -0.197622 -0.240473 -0.352445 -0.169685 -0.169685 -0.169685 -0.172099 -0.199586 -0.259898 -0.134041 -0.134041 -0.134041 -0.135108 -0.146405 -0.165559 -0.103894 -0.103894 -0.103894 -0.104294 -0.108253 -0.114767 -0.079584 -0.079584 -0.079584 -0.079701 -0.080827 -0.082826 -0.060467 -0.060467 -0.060467 -0.060480 -0.060594 -0.060995 -0.045655 -0.045655 -0.045655 -0.045636 -0.045431 -0.045304 -0.034290 -0.034290 -0.034290 -0.034263 -0.033993 -0.033729 -0.025629 -0.025629 -0.025629 -0.025604 -0.025354 -0.025088 -0.019069 -0.019069 -0.019069 -0.019048 -0.018840 -0.018612 -0.014124 -0.014124 -0.014124 -0.014108 -0.013943 -0.013760 -0.010416 -0.010416 -0.010416 -0.010403 -0.010275 -0.010133 -0.007647 -0.007647 -0.007647 -0.007638 -0.007540 -0.007431 -0.005590 -0.005590 -0.005590 -0.005583 -0.005510 -0.005427 -0.004069 -0.004069 -0.004069 -0.004063 -0.004008 -0.003946 -0.002949 -0.002949 -0.002949 -0.002945 -0.002903 -0.002857 -0.002128 -0.002128 -0.002128 -0.002124 -0.002094 -0.002060 -0.001528 -0.001528 -0.001528 -0.001526 -0.001504 -0.001478 -0.001093 -0.001093 -0.001093 -0.001092 -0.001075 -0.001057 -0.000779 -0.000779 -0.000779 -0.000777 -0.000765 -0.000752 -0.000552 -0.000552 -0.000552 -0.000551 -0.000542 -0.000533 -0.000390 -0.000390 -0.000390 -0.000389 -0.000383 -0.000376 -0.000274 -0.000274 -0.000274 -0.000274 -0.000269 -0.000264 -0.000192 -0.000192 -0.000192 -0.000191 -0.000188 -0.000184 -0.000134 -0.000134 -0.000134 -0.000133 -0.000131 -0.000128 -0.000093 -0.000093 -0.000093 -0.000093 -0.000091 -0.000089 -0.000064 -0.000064 -0.000064 -0.000064 -0.000063 -0.000061 -0.000044 -0.000044 -0.000044 -0.000044 -0.000043 -0.000042 -0.000030 -0.000030 -0.000030 -0.000030 -0.000030 -0.000029 -0.000021 -0.000021 -0.000021 -0.000021 -0.000020 -0.000020 -0.000014 -0.000014 -0.000014 -0.000014 -0.000014 -0.000013 -0.000009 -0.000009 -0.000009 -0.000009 -0.000009 -0.000009 -0.000006 -0.000006 -0.000006 -0.000006 -0.000006 -0.000006 -0.000004 -0.000004 -0.000004 -0.000004 -0.000004 -0.000004 -0.000003 -0.000003 -0.000003 -0.000003 -0.000003 -0.000003 -0.000002 -0.000002 -0.000002 -0.000002 -0.000002 -0.000002 -0.000001 -0.000001 -0.000001 -0.000001 -0.000001 -0.000001 -0.000001 -0.000001 -0.000001 -0.000001 -0.000001 -0.000001 -0.000001 -0.000001 -0.000001 -0.000001 -0.000001 -0.000001 -0.000000 -0.000000 -0.000000 -0.000000 -0.000000 -0.000000 -0.000000 -0.000000 -0.000000 -0.000000 -0.000000 -0.000000 -0.000000 -0.000000 -0.000000 -0.000000 -0.000000 -0.000000 -0.000000 -0.000000 -0.000000 -0.000000 -0.000000 -0.000000 -0.000000 -0.000000 -0.000000 -0.000000 -0.000000 -0.000000 -0.000000 -0.000000 -0.000000 -0.000000 -0.000000 -0.000000 -0.000000 -0.000000 -0.000000 -0.000000 -0.000000 -0.000000 -0.000000 -0.000000 -0.000000 -0.000000 -0.000000 -0.000000 -0.000000 -0.000000 -0.000000 -0.000000 -0.000000 -0.000000 -0.000000 -0.000000 -0.000000 -0.000000 -0.000000 -0.000000 -0.000000 -0.000000 -0.000000 -0.000000 -0.000000 -0.000000 -0.000000 -0.000000 -0.000000 -0.000000 -0.000000 -0.000000 -0.000000 -0.000000 -0.000000 -0.000000 -0.000000 -0.000000 -0.000000 -0.000000 -0.000000 -0.000000 -0.000000 -0.000000 -0.000000 -0.000000 -0.000000 -0.000000 -0.000000 -0.000000 -0.000000 -0.000000 -0.000000 -0.000000 -0.000000 -0.000000 -0.000000 -0.000000 -0.000000 -0.000000 -0.000000 -0.000000 -0.000000 -0.000000 -0.000000 -0.000000 -0.000000 -0.000000 -0.000000 -0.000000 -0.000000 -0.000000 -0.000000 -0.000000 -0.000000 -0.000000 -0.000000 -0.000000 -0.000000 -0.000000 -0.000000 -0.000000 -0.000000 -0.000000 -0.000000 -0.000000 -0.000000 -0.000000 -0.000000 -0.000000 -0.000000 -0.000000 -0.000000 -0.000000 -0.000000 -0.000000 -0.000000 -0.000000 -0.000000 -0.000000 -0.000000 -0.000000 -0.000000 -0.000000 -0.000000 -0.000000 -0.000000 -0.000000 -0.000000 -0.000000 -0.000000 -0.000000 -0.000000 -0.000000 -0.000000 -0.000000 -0.000000 -0.000000 -0.000000 -0.000000 -0.000000 -0.000000 -0.000000 -0.000000 -0.000000 -0.000000 -0.000000 -0.000000 -0.000000 -0.000000 -0.000000 -0.000000 -0.000000 -0.000000 -0.000000 -0.000000 -0.000000 -0.000000 -0.000000 -0.000000 -0.000000 -0.000000 -0.000000 -0.000000 -0.000000 -0.000000 -0.000000 -0.000000 -0.000000 -0.000000 -0.000000 -0.000000 -0.000000 -0.000000 -0.000000 -0.000000 -0.000000 -0.000000 -0.000000 -0.000000 -0.000000 -0.000000 -0.000000 -0.000000 -0.000000 -0.000000 -0.000000 -0.000000 -0.000000 -0.000000 -0.000000 -0.000000 -0.000000 -0.000000 -0.000000 -0.000000 -0.000000 -0.000000 -0.000000 -0.000000 -0.000000 -0.000000 -0.000000 -0.000000 -0.000000 -0.000000 -0.000000 -0.000000 -0.000000 -0.000000 -0.000000 -0.000000 -0.000000 -0.000000 -0.000000 -0.000000 -0.000000 -0.000000 -0.000000 -0.000000 -0.000000 -0.000000 -0.000000 -0.000000 -0.000000 -0.000000 -0.000000 -0.000000 -0.000000 -0.000000 -0.000000 -0.000000 -0.000000 -0.000000 -0.000000 -0.000000 -0.000000 -0.000000 -0.000000 -0.000000 -0.000000 -0.000000 -0.000000 -0.000000 -0.000000 -0.000000 -0.000000 -0.000000 -0.000000 -0.000000 -0.000000 -0.000000 -0.000000 -0.000000 -0.000000 -0.000000 -0.000000 -0.000000 -0.000000 -0.000000 -0.000000 -0.000000 -0.000000 -0.000000 -0.000000 -0.000000 -0.000000 -0.000000 -0.000000 -0.000000 -0.000000 -0.000000 -0.000000 -0.000000 -0.000000 -0.000000 -0.000000 -0.000000 -0.000000 -0.000000 -0.000000 -0.000000 -0.000000 -0.000000 -0.000000 -0.000000 -0.000000 -0.000000 -0.000000 -0.000000 -0.000000 -0.000000 -0.000000 -0.000000 -0.000000 -0.000000 -0.000000 -0.000000 -0.000000 -0.000000 -0.000000 -0.000000 -0.000000 -0.000000 -0.000000 -0.000000 -0.000000 -0.000000 -0.000000 -0.000000 -0.000000 -0.000000 -0.000000 -0.000000 -0.000000 -0.000000 -0.000000 -0.000000 -0.000000 -0.000000 -0.000000 -0.000000 -0.000000 -0.000000 -0.000000 -0.000000 -0.000000 -0.000000 -0.000000 -0.000000 -0.000000 -0.000000 -0.000000 -0.000000 -0.000000 -0.000000 -0.000000 -0.000000 -0.000000 -0.000000 -0.000000 -0.000000 -0.000000 -0.000000 -0.000000 -0.000000 -0.000000 -0.000000 -0.000000 -0.000000 -0.000000 -0.000000 -0.000000 -0.000000 -0.000000 -0.000000 -0.000000 -0.000000 -0.000000 -0.000000 -0.000000 -0.000000 -0.000000 -0.000000 -0.000000 -0.000000 -0.000000 -0.000000 -0.000000 -0.000000 -0.000000 -0.000000 -0.000000 -0.000000 -0.000000 -0.000000 -0.000000 -0.000000 -0.000000 -0.000000 -0.000000 -0.000000 -0.000000 -0.000000 -0.000000 -0.000000 -0.000000 -0.000000 -0.000000 -0.000000 -0.000000 -0.000000 -0.000000 -0.000000 -0.000000 -0.000000 -0.000000 -0.000000 -0.000000 -0.000000 -0.000000 -0.000000 -0.000000 -0.000000 -0.000000 -0.000000 -0.000000 -0.000000 -0.000000 -0.000000 -0.000000 -0.000000 -0.000000 -0.000000 -0.000000 -0.000000 -0.000000 -0.000000 -0.000000 -0.000000 -0.000000 -0.000000 -0.000000 -0.000000 -0.000000 -0.000000 -0.000000 -0.000000 -0.000000 -0.000000 -0.000000 -0.000000 -0.000000 -0.000000 -0.000000 -0.000000 -0.000000 -0.000000 -0.000000 -0.000000 -0.000000 -0.000000 -0.000000 -0.000000 -0.000000 -0.000000 -0.000000 -0.000000 -0.000000 -0.000000 -0.000000 -0.000000 -0.000000 -0.000000 -0.000000 -0.000000 -0.000000 -0.000000 -0.000000 -0.000000 -0.000000 -0.000000 -0.000000 -0.000000 -0.000000 -0.000000 -0.000000 -0.000000 -0.000000 -0.000000 -0.000000 -0.000000 -0.000000 -0.000000 -0.000000 -0.000000 -0.000000 -0.000000 -0.000000 -0.000000 -0.000000 -0.000000 -0.000000 -0.000000 -0.000000 -0.000000 -0.000000 -0.000000 -0.000000 -0.000000 -0.000000 -0.000000 -0.000000 -0.000000 -0.000000 -0.000000 -0.000000 -0.000000 -0.000000 -0.000000 -0.000000 -0.000000 -0.000000 -0.000000 -0.000000 -0.000000 -0.000000 -0.000000 -0.000000 -0.000000 -0.000000 -0.000000 -0.000000 -0.000000 -0.000000 -0.000000 -0.000000 -0.000000 -0.000000 -0.000000 -0.000000 -0.000000 -0.000000 -0.000000 -0.000000 -0.000000 -0.000000 -0.000000 -0.000000 -0.000000 -0.000000 -0.000000 -0.000000 -0.000000 -0.000000 -0.000000 -0.000000 -0.000000 -0.000000 -0.000000 -0.000000 -0.000000 -0.000000 -0.000000 -0.000000 -0.000000 -0.000000 -0.000000 -0.000000 -0.000000 -0.000000 -0.000000 -0.000000 -0.000000 -0.000000 -0.000000 -0.000000 -0.000000 -0.000000 -0.000000 -0.000000 -0.000000 -0.000000 -0.000000 -0.000000 -0.000000 -0.000000 -0.000000 -0.000000 -0.000000 -0.000000 -0.000000 -0.000000 -0.000000 -0.000000 -0.000000 -0.000000 -0.000000 -0.000000 -0.000000 -0.000000 -0.000000 -0.000000 -0.000000 -0.000000 -0.000000 -0.000000 -0.000000 -0.000000 -0.000000 -0.000000 -0.000000 -0.000000 -0.000000 -0.000000 -0.000000 -0.000000 -0.000000 -0.000000 -0.000000 -0.000000 -0.000000 -0.000000 -0.000000 -0.000000 -0.000000 -0.000000 -0.000000 -0.000000 -0.000000 -0.000000 -0.000000 -0.000000 -0.000000 -0.000000 -0.000000 -0.000000 -0.000000 -0.000000 -0.000000 -0.000000 -0.000000 -0.000000 -0.000000 -0.000000 -0.000000 -0.000000 -0.000000 -0.000000 -0.000000 -0.000000 -0.000000 -0.000000 -0.000000 -0.000000 -0.000000 -0.000000 -0.000000 -0.000000 -0.000000 -0.000000 -0.000000 -0.000000 -0.000000 -0.000000 -0.000000 -0.000000 -0.000000 -0.000000 -0.000000 -0.000000 -0.000000 -0.000000 -0.000000 -0.000000 -0.000000 -0.000000 -0.000000 -0.000000 -0.000000 -0.000000 -0.000000 -0.000000 -0.000000 -0.000000 -0.000000 -0.000000 -0.000000 -0.000000 -0.000000 -0.000000 -0.000000 -0.000000 -0.000000 -0.000000 -0.000000 -0.000000 -0.000000 -0.000000 -0.000000 -0.000000 -0.000000 -0.000000 -0.000000 -0.000000 -0.000000 -0.000000 -0.000000 -0.000000 -0.000000 -0.000000 -0.000000 -0.000000 -0.000000 -0.000000 -0.000000 -0.000000 -0.000000 -0.000000 -0.000000 -0.000000 -0.000000 -0.000000 -0.000000 -0.000000 -0.000000 -0.000000 -0.000000 -0.000000 -0.000000 -0.000000 -0.000000 -0.000000 -0.000000 -0.000000 -0.000000 -0.000000 -0.000000 -0.000000 -0.000000 -0.000000 -0.000000 -0.000000 -0.000000 -0.000000 -0.000000 -0.000000 -0.000000 -0.000000 -0.000000 -0.000000 -0.000000 -0.000000 -0.000000 -0.000000 -0.000000 -0.000000 -0.000000 -0.000000 -0.000000 -0.000000 -0.000000 -0.000000 -0.000000 -0.000000 -0.000000 -0.000000 -0.000000 -0.000000 -0.000000 -0.000000 -0.000000 -0.000000 -0.000000 -0.000000 -0.000000 -0.000000 -0.000000 -0.000000 -0.000000 -0.000000 -0.000000 -0.000000 -0.000000 -0.000000 -0.000000 -0.000000 -0.000000 -0.000000 -0.000000 -0.000000 -0.000000 -0.000000 -0.000000 -0.000000 -0.000000 -0.000000 -0.000000 -0.000000 -0.000000 -0.000000 -0.000000 -0.000000 -0.000000 -0.000000 -0.000000 -0.000000 -0.000000 -0.000000 -0.000000 -0.000000 -0.000000 -0.000000 -0.000000 -0.000000 -0.000000 -0.000000 -0.000000 -0.000000 -0.000000 -0.000000 -0.000000 -0.000000 -0.000000 -0.000000 -0.000000 -0.000000 -0.000000 -0.000000 -0.000000 -0.000000 -0.000000 -0.000000 -0.000000 -0.000000 -0.000000 -0.000000 -0.000000 -0.000000 -0.000000 -0.000000 -0.000000 -0.000000 -0.000000 -0.000000 -0.000000 -0.000000 -0.000000 -0.000000 -0.000000 -0.000000 -0.000000 -0.000000 -0.000000 -0.000000 -0.000000 -0.000000 -0.000000 -0.000000 -0.000000 -0.000000 -0.000000 -0.000000 -0.000000 -0.000000 -0.000000 -0.000000 -0.000000 -0.000000 -0.000000 -0.000000 -0.000000 -0.000000 -0.000000 -0.000000 -0.000000 -0.000000 -0.000000 -0.000000 -0.000000 -0.000000 -0.000000 -0.000000 -0.000000 -0.000000 -0.000000 -0.000000 -0.000000 -0.000000 -0.000000 -0.000000 -0.000000 -0.000000 -0.000000 -0.000000 -0.000000 -0.000000 -0.000000 -0.000000 -0.000000 -0.000000 -0.000000 -0.000000 -0.000000 -0.000000 -0.000000 -0.000000 -0.000000 -0.000000 -0.000000 -0.000000 -0.000000 -0.000000 -0.000000 -0.000000 -0.000000 -0.000000 -0.000000 -0.000000 -0.000000 -0.000000 -0.000000 -0.000000 -0.000000 -0.000000 -0.000000 -0.000000 -0.000000 -0.000000 -0.000000 -0.000000 -0.000000 -0.000000 -0.000000 -0.000000 -0.000000 -0.000000 -0.000000 -0.000000 -0.000000 -0.000000 -0.000000 -0.000001 -0.000001 -0.000001 -0.000001 -0.000001 -0.000001 -0.000001 -0.000001 -0.000001 -0.000001 -0.000001 -0.000001 -0.000001 -0.000001 -0.000001 -0.000001 -0.000002 -0.000002 -0.000002 -0.000002 -0.000002 -0.000002 -0.000002 -0.000004 -0.000002 -0.000002 -0.000002 -0.000002 -0.000003 -0.000006 -0.000011 -0.000018 -0.000026 -0.000036 -0.000048 -0.000063 -0.000081 -0.000104 -0.000129 -0.000157 -0.000185 -0.000208 -0.000219 -0.000206 -0.000148 -0.000014 0.000242 0.000689 0.001427 0.002600 0.004412 0.007150 0.011211 0.017140 0.025684 0.037848 0.054982 0.078880 0.111911 0.157180 0.218725 0.301766 0.412999 0.560959 0.756455 1.013080 1.347823 1.781778 2.340969 3.057304 3.969656 5.125093 6.580254 8.402887 10.673546 13.487451 16.956522 21.211598 26.404861 32.712552 40.338386 49.521229 60.592162 74.679385 104.512237 292.054408 3116.835513 13871.685037 33849.494922 20491.273836 40705.559798 10297.284875 44342.338300 9075.740544 -10278.124559 13923.377478 46657.593065 12102.527701 27461.978989 14718.269809 21001.173113 49477.007564 27414.666647 22880.893006 34896.511530 21548.241036 22284.144150 24768.934890 25281.512067 21866.253581 19869.722133 20435.988156 21928.129636 21035.439036 21091.933547 19180.370378 20848.571477 20013.164739 23409.413847 24643.572301 25671.783984 27755.300222 30567.996959 29215.837437 31577.578879 29814.945148 27266.487599 25980.971723 24129.710124 21544.708323 21515.905074 20136.245121 19677.109402 19677.109402 19677.109402 -0.000003 -0.000003 -0.000003 -0.000003 -0.000004 -0.000008 -0.000013 -0.000019 -0.000026 -0.000036 -0.000048 -0.000063 -0.000082 -0.000104 -0.000129 -0.000157 -0.000184 -0.000206 -0.000216 -0.000200 -0.000137 0.000003 0.000269 0.000731 0.001490 0.002693 0.004547 0.007342 0.011482 0.017520 0.026211 0.038571 0.055967 0.080211 0.113696 0.159555 0.221863 0.305884 0.418366 0.567909 0.765397 1.024512 1.362348 1.800120 2.363994 3.086035 4.005299 5.169055 6.634169 8.468639 10.753293 13.583649 17.071952 21.349396 26.568554 32.906113 40.566300 49.787580 60.880090 74.612768 96.726445 184.056159 609.535679 2019.989465 4826.604786 6037.547628 9036.346519 9016.610360 10983.039301 9602.024229 6243.826834 5953.190393 14073.146758 14550.687528 16604.906987 13132.778827 14344.420003 19388.628786 18323.415842 17494.077581 17214.954858 14634.057585 15388.047305 16148.747857 16594.471207 15293.566705 14289.058653 15098.763564 15930.677147 16038.874363 17322.218615 16876.604007 18092.607617 18477.638455 20811.135072 21259.748159 21171.887802 22340.381907 24633.322498 24636.578709 26436.124231 25306.476229 23612.589276 23859.818994 21905.327505 17625.519241 18287.046461 18605.266431 18380.516802 18380.516802 18380.516802 -0.000003 -0.000003 -0.000003 -0.000003 -0.000005 -0.000009 -0.000013 -0.000019 -0.000027 -0.000037 -0.000049 -0.000064 -0.000083 -0.000105 -0.000130 -0.000157 -0.000183 -0.000204 -0.000212 -0.000192 -0.000124 0.000024 0.000301 0.000780 0.001563 0.002800 0.004702 0.007565 0.011797 0.017961 0.026821 0.039409 0.057107 0.081751 0.115759 0.162300 0.225488 0.310639 0.424561 0.575928 0.775709 1.037691 1.379087 1.821251 2.390510 3.119112 4.046319 5.219635 6.696183 8.544249 10.844971 13.694213 17.204591 21.507706 26.756581 33.128430 40.828134 50.094304 61.220650 74.694091 92.202472 122.884505 201.379158 400.092225 755.942020 1166.225601 1677.340154 2388.734301 3312.118325 4444.379496 4969.569418 5458.387110 6591.743196 7828.669214 8665.044468 9107.027233 9619.369259 10372.800509 10935.985969 11212.094141 11373.170961 11409.542874 11557.325571 11801.568546 12003.742206 12093.514811 12235.308737 12594.453388 13061.141929 13548.146120 14193.035829 14834.580017 15598.275360 16374.292621 17305.456761 17972.592778 18513.232037 19093.435174 19823.309020 20282.963616 20761.012762 20589.379114 20227.461145 20004.690195 19607.208266 18618.363702 18245.807910 17756.954238 17585.335345 17585.335345 17585.335345 -0.000003 -0.000003 -0.000003 -0.000003 -0.000005 -0.000009 -0.000013 -0.000019 -0.000027 -0.000037 -0.000049 -0.000064 -0.000083 -0.000105 -0.000130 -0.000157 -0.000183 -0.000204 -0.000211 -0.000191 -0.000122 0.000028 0.000307 0.000789 0.001576 0.002820 0.004731 0.007605 0.011854 0.018040 0.026931 0.039560 0.057313 0.082029 0.116131 0.162794 0.226142 0.311495 0.425677 0.577372 0.777566 1.040063 1.382099 1.825053 2.395279 3.125061 4.053695 5.228728 6.707330 8.557837 10.861445 13.714078 17.228419 21.536142 26.790352 33.168359 40.875168 50.149490 61.282941 74.723856 91.689473 117.066636 166.782475 272.550475 460.798192 722.994268 1073.656636 1602.825191 2403.605368 3455.038337 4420.280654 5196.644942 6018.309274 6940.303661 7771.143433 8404.695260 8976.786544 9564.570095 10072.623063 10449.856470 10720.299653 10906.571608 11098.668675 11319.171407 11533.189021 11722.200196 11961.948272 12327.811415 12780.250367 13301.863331 13913.931931 14570.025734 15283.853841 16045.631789 16830.797408 17543.433578 18173.631656 18764.456405 19304.992575 19734.040502 20015.097084 20035.725809 19827.071738 19494.020005 19114.327841 18712.918615 18111.696565 17579.711531 17473.222340 17473.222340 17473.222340 -0.000003 -0.000003 -0.000003 -0.000003 -0.000005 -0.000009 -0.000013 -0.000019 -0.000027 -0.000037 -0.000049 -0.000064 -0.000083 -0.000105 -0.000130 -0.000157 -0.000183 -0.000204 -0.000211 -0.000191 -0.000122 0.000028 0.000307 0.000789 0.001576 0.002820 0.004731 0.007605 0.011854 0.018040 0.026931 0.039560 0.057313 0.082029 0.116131 0.162794 0.226142 0.311495 0.425677 0.577372 0.777566 1.040063 1.382099 1.825053 2.395279 3.125061 4.053695 5.228728 6.707330 8.557837 10.861445 13.714078 17.228419 21.536142 26.790352 33.168359 40.875168 50.149490 61.282941 74.723856 91.689473 117.066636 166.782475 272.550475 460.798192 722.994268 1073.656636 1602.825191 2403.605368 3455.038337 4420.280654 5196.644942 6018.309274 6940.303661 7771.143433 8404.695260 8976.786544 9564.570095 10072.623063 10449.856470 10720.299653 10906.571608 11098.668675 11319.171407 11533.189021 11722.200196 11961.948272 12327.811415 12780.250367 13301.863331 13913.931931 14570.025734 15283.853841 16045.631789 16830.797408 17543.433578 18173.631656 18764.456405 19304.992575 19734.040502 20015.097084 20035.725809 19827.071738 19494.020005 19114.327841 18712.918615 18111.696565 17579.711531 17473.222340 17473.222340 17473.222340 -0.000003 -0.000003 -0.000003 -0.000003 -0.000005 -0.000009 -0.000013 -0.000019 -0.000027 -0.000037 -0.000049 -0.000064 -0.000083 -0.000105 -0.000130 -0.000157 -0.000183 -0.000204 -0.000211 -0.000191 -0.000122 0.000028 0.000307 0.000789 0.001576 0.002820 0.004731 0.007605 0.011854 0.018040 0.026931 0.039560 0.057313 0.082029 0.116131 0.162794 0.226142 0.311495 0.425677 0.577372 0.777566 1.040063 1.382099 1.825053 2.395279 3.125061 4.053695 5.228728 6.707330 8.557837 10.861445 13.714078 17.228419 21.536142 26.790352 33.168359 40.875168 50.149490 61.282941 74.723856 91.689473 117.066636 166.782475 272.550475 460.798192 722.994268 1073.656636 1602.825191 2403.605368 3455.038337 4420.280654 5196.644942 6018.309274 6940.303661 7771.143433 8404.695260 8976.786544 9564.570095 10072.623063 10449.856470 10720.299653 10906.571608 11098.668675 11319.171407 11533.189021 11722.200196 11961.948272 12327.811415 12780.250367 13301.863331 13913.931931 14570.025734 15283.853841 16045.631789 16830.797408 17543.433578 18173.631656 18764.456405 19304.992575 19734.040502 20015.097084 20035.725809 19827.071738 19494.020005 19114.327841 18712.918615 18111.696565 17579.711531 17473.222340 17473.222340 17473.222340 -1354.508135 -1477.323382 -1674.091784 -2000.316150 -2534.745859 -1783.590466 -124.594741 -570.073770 -1654.749872 -966.172674 801.763573 438.932496 -418.333240 -1315.368215 -1112.316417 1031.057770 989.753968 -351.450095 -1655.278865 -811.977968 1568.647319 656.256531 -1252.586951 -1962.464641 1224.921929 2061.786434 382.099634 -1009.035108 -2195.604237 369.731392 2475.887598 1161.249398 14.168424 -1423.290865 -1876.448753 2303.850179 4443.924984 5330.884789 6810.487673 5351.604862 4662.575597 4713.674527 6973.936004 6730.756403 7184.720806 8954.033704 10046.398579 9720.639493 11361.901448 11593.753138 9604.614932 9416.667327 10240.923901 10321.422112 10321.422112 10321.422112 -2149.942117 -543.669586 -109.264574 11671.453543 9510.659334 11305.163979 11177.805163 12220.065576 11005.126002 13544.857280 10912.083201 9579.300208 10404.361526 12137.443231 10803.758278 11818.587423 11195.966752 13022.550769 10818.778928 12068.387702 10494.556458 10456.365625 9982.271761 11886.647473 11718.018072 9845.220590 11056.128445 11561.810559 9128.355765 11143.468684 14613.567532 11218.463334 15278.322126 13904.487932 14903.467543 13122.419382 11324.864130 15211.572838 10488.538390 12108.661753 13281.143235 10546.603124 11750.252376 12083.214167 12082.664359 11016.809017 13558.470636 12702.350854 13621.079477 11981.675994 13629.923845 8621.111719 10152.818486 10387.412843 10387.412843 10387.412843 124.085396 94.304348 6321.028284 4354.548248 12918.256915 11298.903904 10450.175928 11392.145990 10962.800471 12493.840873 11873.864221 10256.271555 8310.206747 9690.149174 8283.663528 9794.546151 4949.887638 10792.461670 10918.534654 11453.528712 11834.722210 12148.974674 11218.843550 10374.649116 11728.074644 12412.932340 9662.503005 8921.008184 11383.422558 10823.134802 6738.036885 12417.998201 11933.232450 11052.803905 13930.673091 10773.672508 7443.124050 9851.303551 12452.242345 13492.203781 10374.855058 12152.800183 7966.530227 12283.071560 8802.045438 12151.490840 10936.097238 13159.390954 9808.043680 15577.808342 12043.408333 8733.865241 10349.674469 10537.257920 10537.257920 10537.257920 -211.771408 -1166.673226 9804.915464 8257.952746 13329.468499 8935.845444 10143.239562 10249.775987 12993.431217 11144.138642 11871.894000 10439.132844 9181.874060 6995.191587 10964.864115 8797.030162 10637.170650 9928.235564 8822.940990 11757.538979 7788.924650 9374.233389 7050.437356 11104.190696 8710.748139 7446.281121 9567.025633 9377.168557 10180.491571 10704.145145 11425.557805 10755.821789 11458.479823 8705.836527 11569.023062 9227.828065 10385.012969 8570.702562 9471.258259 8183.367962 7359.309096 7019.441849 10538.058279 11667.674525 6865.247962 13939.748065 15754.220274 11028.902375 12139.347335 13777.246939 12282.731809 10374.187974 10629.898958 10640.673452 10640.673452 106