<VTKFile type="PolyData">
<PolyData>
<Piece NumberOfPoints="8632" NumberOfVerts="8632" NumberOfLines="0" NumberOfStrips="0" NumberOfPolys="0">
<PointData>
<DataArray type="Float64" Name="Pressure" format="ascii">
 -8.471135 -8.471135 -8.471135 -8.554783 -9.492174 -11.907517 -14.635904 -17.730293 -21.166919 -24.940760 -29.071645 -33.593588 -38.547968 -43.980375 -49.939318 -56.475690 -63.642528 -71.494873 -80.089640 -89.485485 -99.742631 -110.922678 -123.088352 -136.303232 -150.631426 -166.137203 -182.884586 -200.936898 -220.356272 -241.203122 -263.535574 -287.408882 -312.874815 -339.981034 -368.770465 -399.280677 -431.543271 -465.583265 -501.418493 -539.058970 -578.506194 -619.752341 -662.779257 -707.557158 -754.042930 -802.177899 -851.884932 -903.064714 -955.590890 -1009.303312 -1063.997317 -1119.403426 -1175.143320 -1230.633340 -1284.896769 -1336.519231 -1384.190225 -1426.909875 -1462.909302 -1488.207041 -1494.580993 -1467.422326 -1383.968125 -1226.553053 -1033.314023 -877.216957 -748.470561 -588.573625 -407.737031 -286.510114 -236.825121 -201.321292 -117.614790 29.008889 168.078954 243.865244 279.806952 325.459150 430.810630 645.290775 985.421389 1397.903161 1821.056930 2241.200164 2669.428941 3115.854894 3579.688037 4053.006289 4537.139496 5040.997723 5570.008984 6118.562532 6672.491543 7226.695772 7786.732867 8356.511354 8934.080498 9515.341179 10092.447136 10652.428268 11178.341238 11644.828668 12038.521814 12374.156950 12664.048825 12903.187019 13091.776789 13206.010631 13227.358921 13227.358921 13227.358921 -8.471135 -8.471135 -8.471135 -8.554783 -9.492174 -11.907517 -14.635904 -17.730293 -21.166919 -24.940760 -29.071645 -33.593588 -38.547968 -43.980375 -49.939318 -56.475690 -63.642528 -71.494873 -80.089640 -89.485485 -99.742631 -110.922678 -123.088352 -136.303232 -150.631426 -166.137203 -182.884586 -200.936898 -220.356272 -241.203122 -263.535574 -287.408882 -312.874815 -339.981034 -368.770465 -399.280677 -431.543271 -465.583265 -501.418493 -539.058970 -578.506194 -619.752341 -662.779257 -707.557158 -754.042930 -802.177899 -851.884932 -903.064714 -955.590890 -1009.303312 -1063.997317 -1119.403426 -1175.143320 -1230.633340 -1284.896769 -1336.519231 -1384.190225 -1426.909875 -1462.909302 -1488.207041 -1494.580993 -1467.422326 -1383.968125 -1226.553053 -1033.314023 -877.216957 -748.470561 -588.573625 -407.737031 -286.510114 -236.825121 -201.321292 -117.614790 29.008889 168.078954 243.865244 279.806952 325.459150 430.810630 645.290775 985.421389 1397.903161 1821.056930 2241.200164 2669.428941 3115.854894 3579.688037 4053.006289 4537.139496 5040.997723 5570.008984 6118.562532 6672.491543 7226.695772 7786.732867 8356.511354 8934.080498 9515.341179 10092.447136 10652.428268 11178.341238 11644.828668 12038.521814 12374.156950 12664.048825 12903.187019 13091.776789 13206.010631 13227.358921 13227.358921 13227.358921 -8.471135 -8.471135 -8.471135 -8.554783 -9.492174 -11.907517 -14.635904 -17.730293 -21.166919 -24.940760 -29.071645 -33.593588 -38.547968 -43.980375 -49.939318 -56.475690 -63.642528 -71.494873 -80.089640 -89.485485 -99.742631 -110.922678 -123.088352 -136.303232 -150.631426 -166.137203 -182.884586 -200.936898 -220.356272 -241.203122 -263.535574 -287.408882 -312.874815 -339.981034 -368.770465 -399.280677 -431.543271 -465.583265 -501.418493 -539.058970 -578.506194 -619.752341 -662.779257 -707.557158 -754.042930 -802.177899 -851.884932 -903.064714 -955.590890 -1009.303312 -1063.997317 -1119.403426 -1175.143320 -1230.633340 -1284.896769 -1336.519231 -1384.190225 -1426.909875 -1462.909302 -1488.207041 -1494.580993 -1467.422326 -1383.968125 -1226.553053 -1033.314023 -877.216957 -748.470561 -588.573625 -407.737031 -286.510114 -236.825121 -201.321292 -117.614790 29.008889 168.078954 243.865244 279.806952 325.459150 430.810630 645.290775 985.421389 1397.903161 1821.056930 2241.200164 2669.428941 3115.854894 3579.688037 4053.006289 4537.139496 5040.997723 5570.008984 6118.562532 6672.491543 7226.695772 7786.732867 8356.511354 8934.080498 9515.341179 10092.447136 10652.428268 11178.341238 11644.828668 12038.521814 12374.156950 12664.048825 12903.187019 13091.776789 13206.010631 13227.358921 13227.358921 13227.358921 -8.436386 -8.436386 -8.436386 -8.518495 -9.449355 -11.849048 -14.584666 -17.699208 -21.150481 -24.930930 -29.064216 -33.586727 -38.540917 -43.972817 -49.931109 -56.466756 -63.632825 -71.484366 -80.078302 -89.473290 -99.729561 -110.908713 -123.073481 -136.287445 -150.614720 -166.119580 -182.866053 -200.917472 -220.335975 -241.181983 -263.513632 -287.386185 -312.851418 -339.957002 -368.745872 -399.255605 -431.517809 -465.557514 -501.392561 -539.032975 -578.480266 -619.726627 -662.753923 -707.532407 -754.019019 -802.155187 -851.863986 -903.046554 -955.577596 -1009.299525 -1064.013969 -1119.466785 -1175.315229 -1231.046865 -1285.709208 -1337.736931 -1385.698299 -1429.059208 -1466.565279 -1494.926974 -1507.070254 -1490.319970 -1417.040713 -1222.601017 -1007.133509 -874.839268 -764.606427 -599.103052 -377.243962 -264.459134 -232.626846 -217.961087 -144.398531 32.760375 193.286119 260.496894 280.231428 309.001501 396.721276 604.842159 965.383899 1400.788593 1829.051016 2246.267520 2672.378072 3120.803146 3589.680562 4063.268206 4547.497622 5053.719250 5587.732787 6143.178286 6697.119400 7246.007663 7800.550117 8367.777476 8942.561105 9519.513485 10096.602129 10661.867767 11198.331997 11670.367898 12054.950635 12387.016357 12686.223571 12933.279083 13118.457241 13226.147236 13246.873426 13246.873426 13246.873426 -8.058154 -8.058154 -8.058154 -8.123231 -8.927308 -11.074240 -13.925898 -17.369223 -20.985066 -24.833604 -28.990496 -33.518390 -38.470547 -43.897315 -49.849079 -56.377476 -63.535843 -71.379348 -79.964968 -89.351402 -99.598910 -110.769129 -122.924830 -136.129640 -150.447724 -165.943412 -182.680795 -200.723274 -220.133062 -240.970658 -263.294281 -287.159278 -312.617514 -339.716748 -368.500001 -399.004939 -431.263254 -465.300063 -501.133296 -538.773076 -578.221033 -619.469515 -662.500605 -707.284889 -753.779859 -801.927948 -851.654246 -902.864313 -955.443156 -1009.258108 -1064.172209 -1120.083192 -1177.018761 -1235.283387 -1295.614848 -1352.937187 -1402.651074 -1452.390995 -1506.120108 -1567.854996 -1644.346835 -1744.870730 -1793.394721 -1183.866537 -518.705716 -744.066338 -1026.352305 -780.981743 76.588556 103.884555 -183.930318 -441.581013 -568.600481 103.646724 616.656503 462.026840 287.087917 119.119600 -20.645182 -0.348185 710.830483 1509.610034 1937.620825 2306.343954 2710.235933 3205.216870 3760.625485 4231.585524 4705.294988 5231.129718 5811.119249 6445.771987 6984.283630 7447.590816 7936.378642 8506.639072 9076.727837 9603.333527 10184.260680 10827.868263 11524.401682 12065.895076 12286.585638 12563.128455 13060.243069 13433.271349 13527.251385 13485.796247 13472.677975 13472.677975 13472.677975 -7.514834 -7.514834 -7.514834 -7.565877 -8.152736 -9.702662 -12.485656 -16.791994 -20.743586 -24.704221 -28.899680 -33.438020 -38.389535 -43.811119 -49.755717 -56.275972 -63.425622 -71.260003 -79.836175 -89.212881 -99.450425 -110.610483 -122.755870 -135.950267 -150.257893 -165.743145 -182.470186 -200.502491 -219.902360 -240.730380 -263.044864 -286.901259 -312.351527 -339.443526 -368.220381 -398.719854 -430.973735 -465.007237 -500.838393 -538.477437 -577.926136 -619.177014 -662.212417 -707.003341 -753.507993 -801.670165 -851.417800 -902.662886 -955.305657 -1009.250665 -1064.453537 -1121.045957 -1179.661825 -1242.319958 -1314.952250 -1376.815701 -1423.655122 -1479.615232 -1552.215615 -1653.249930 -1807.098942 -2065.005455 -2500.092379 -1781.456099 -265.301264 -559.309867 -1468.923810 -1245.074353 523.519276 614.355399 -121.805508 -769.798468 -1164.945392 260.480946 1289.163825 757.097115 299.851603 -114.082582 -678.111525 -1094.359010 457.583408 1903.855268 2117.292815 2384.684521 2764.993737 3363.580976 4361.683014 4448.993848 5030.933553 5611.329987 6086.932089 7062.163689 7415.716096 7840.780594 8245.024751 8960.850228 9909.447813 10113.833482 10633.620253 11677.007344 12401.288216 13453.221588 12843.675334 13109.404850 14580.287720 15220.260860 14565.870384 13938.483786 13827.680554 13827.680554 13827.680554 -7.436853 -7.436853 -7.436853 -7.485955 -8.045341 -9.484674 -6.887544 -6.887544 -6.887544 -6.919767 -7.285602 -8.083774 -6.020677 -6.020677 -6.020677 -6.034984 -6.187810 -6.447228 -5.220945 -5.220945 -5.220945 -5.226384 -5.280196 -5.369209 -4.506333 -4.506333 -4.506333 -4.507805 -4.521875 -4.548014 -3.876863 -3.876863 -3.876863 -3.876803 -3.875899 -3.878776 -3.326731 -3.326731 -3.326731 -3.326139 -3.320100 -3.314771 -2.848194 -2.848194 -2.848194 -2.847461 -2.840095 -2.832335 -2.433301 -2.433301 -2.433301 -2.432575 -2.425305 -2.417293 -2.074541 -2.074541 -2.074541 -2.073873 -2.067192 -2.059705 -1.765056 -1.765056 -1.765056 -1.764460 -1.758498 -1.751773 -1.498677 -1.498677 -1.498677 -1.498152 -1.492906 -1.486972 -1.269903 -1.269903 -1.269903 -1.269444 -1.264863 -1.259673 -1.073851 -1.073851 -1.073851 -1.073453 -1.069469 -1.064955 -0.906206 -0.906206 -0.906206 -0.905860 -0.902409 -0.898497 -0.763161 -0.763161 -0.763161 -0.762862 -0.759879 -0.756499 -0.641370 -0.641370 -0.641370 -0.641113 -0.638542 -0.635628 -0.537902 -0.537902 -0.537902 -0.537680 -0.535470 -0.532964 -0.450189 -0.450189 -0.450189 -0.449999 -0.448103 -0.445954 -0.375996 -0.375996 -0.375996 -0.375833 -0.374211 -0.372372 -0.313375 -0.313375 -0.313375 -0.313236 -0.311851 -0.310281 -0.260637 -0.260637 -0.260637 -0.260519 -0.259339 -0.258002 -0.216320 -0.216320 -0.216320 -0.216219 -0.215216 -0.214080 -0.179160 -0.179160 -0.179160 -0.179075 -0.178225 -0.177262 -0.148071 -0.148071 -0.148071 -0.147999 -0.147280 -0.146465 -0.122118 -0.122118 -0.122118 -0.122058 -0.121450 -0.120763 -0.100501 -0.100501 -0.100501 -0.100450 -0.099938 -0.099360 -0.082534 -0.082534 -0.082534 -0.082491 -0.082062 -0.081576 -0.067635 -0.067635 -0.067635 -0.067599 -0.067240 -0.066832 -0.055308 -0.055308 -0.055308 -0.055277 -0.054977 -0.054636 -0.045130 -0.045130 -0.045130 -0.045105 -0.044854 -0.044570 -0.036746 -0.036746 -0.036746 -0.036726 -0.036517 -0.036281 -0.029856 -0.029856 -0.029856 -0.029839 -0.029665 -0.029469 -0.024205 -0.024205 -0.024205 -0.024191 -0.024047 -0.023885 -0.019582 -0.019582 -0.019582 -0.019570 -0.019451 -0.019317 -0.015807 -0.015807 -0.015807 -0.015797 -0.015700 -0.015589 -0.012732 -0.012732 -0.012732 -0.012724 -0.012644 -0.012553 -0.010234 -0.010234 -0.010234 -0.010227 -0.010161 -0.010087 -0.008207 -0.008207 -0.008207 -0.008202 -0.008148 -0.008087 -0.006568 -0.006568 -0.006568 -0.006563 -0.006519 -0.006470 -0.005245 -0.005245 -0.005245 -0.005241 -0.005205 -0.005164 -0.004179 -0.004179 -0.004179 -0.004176 -0.004147 -0.004114 -0.003322 -0.003322 -0.003322 -0.003320 -0.003296 -0.003269 -0.002635 -0.002635 -0.002635 -0.002633 -0.002614 -0.002593 -0.002086 -0.002086 -0.002086 -0.002084 -0.002069 -0.002052 -0.001648 -0.001648 -0.001648 -0.001646 -0.001634 -0.001620 -0.001298 -0.001298 -0.001298 -0.001297 -0.001287 -0.001276 -0.001021 -0.001021 -0.001021 -0.001020 -0.001012 -0.001003 -0.000801 -0.000801 -0.000801 -0.000800 -0.000794 -0.000787 -0.000627 -0.000627 -0.000627 -0.000627 -0.000621 -0.000616 -0.000490 -0.000490 -0.000490 -0.000489 -0.000485 -0.000481 -0.000382 -0.000382 -0.000382 -0.000381 -0.000378 -0.000375 -0.000297 -0.000297 -0.000297 -0.000297 -0.000294 -0.000291 -0.000230 -0.000230 -0.000230 -0.000230 -0.000228 -0.000226 -0.000178 -0.000178 -0.000178 -0.000178 -0.000177 -0.000175 -0.000138 -0.000138 -0.000138 -0.000138 -0.000136 -0.000135 -0.000106 -0.000106 -0.000106 -0.000106 -0.000105 -0.000104 -0.000082 -0.000082 -0.000082 -0.000082 -0.000081 -0.000080 -0.000063 -0.000063 -0.000063 -0.000063 -0.000062 -0.000061 -0.000048 -0.000048 -0.000048 -0.000048 -0.000047 -0.000047 -0.000037 -0.000037 -0.000037 -0.000037 -0.000036 -0.000036 -0.000028 -0.000028 -0.000028 -0.000028 -0.000028 -0.000027 -0.000021 -0.000021 -0.000021 -0.000021 -0.000021 -0.000021 -0.000016 -0.000016 -0.000016 -0.000016 -0.000016 -0.000016 -0.000012 -0.000012 -0.000012 -0.000012 -0.000012 -0.000012 -0.000009 -0.000009 -0.000009 -0.000009 -0.000009 -0.000009 -0.000007 -0.000007 -0.000007 -0.000007 -0.000007 -0.000007 -0.000005 -0.000005 -0.000005 -0.000005 -0.000005 -0.000005 -0.000004 -0.000004 -0.000004 -0.000004 -0.000004 -0.000004 -0.000003 -0.000003 -0.000003 -0.000003 -0.000003 -0.000003 -0.000002 -0.000002 -0.000002 -0.000002 -0.000002 -0.000002 -0.000002 -0.000002 -0.000002 -0.000002 -0.000002 -0.000002 -0.000001 -0.000001 -0.000001 -0.000001 -0.000001 -0.000001 -0.000001 -0.000001 -0.000001 -0.000001 -0.000001 -0.000001 -0.000001 -0.000001 -0.000001 -0.000001 -0.000001 -0.000001 -0.000000 -0.000000 -0.000000 -0.000000 -0.000000 -0.000000 -0.000000 -0.000000 -0.000000 -0.000000 -0.000000 -0.000000 -0.000000 -0.000000 -0.000000 -0.000000 -0.000000 -0.000000 -0.000000 -0.000000 -0.000000 -0.000000 -0.000000 -0.000000 -0.000000 -0.000000 -0.000000 -0.000000 -0.000000 -0.000000 -0.000000 -0.000000 -0.000000 -0.000000 -0.000000 -0.000000 -0.000000 -0.000000 -0.000000 -0.000000 -0.000000 -0.000000 -0.000000 -0.000000 -0.000000 -0.000000 -0.000000 -0.000000 -0.000000 -0.000000 -0.000000 -0.000000 -0.000000 -0.000000 -0.000000 -0.000000 -0.000000 -0.000000 -0.000000 -0.000000 -0.000000 -0.000000 -0.000000 -0.000000 -0.000000 -0.000000 -0.000000 -0.000000 -0.000000 -0.000000 -0.000000 -0.000000 -0.000000 -0.000000 -0.000000 -0.000000 -0.000000 -0.000000 -0.000000 -0.000000 -0.000000 -0.000000 -0.000000 -0.000000 -0.000000 -0.000000 -0.000000 -0.000000 -0.000000 -0.000000 -0.000000 -0.000000 -0.000000 -0.000000 -0.000000 -0.000000 -0.000000 -0.000000 -0.000000 -0.000000 -0.000000 -0.000000 -0.000000 -0.000000 -0.000000 -0.000000 -0.000000 -0.000000 -0.000000 -0.000000 -0.000000 -0.000000 -0.000000 -0.000000 -0.000000 -0.000000 -0.000000 -0.000000 -0.000000 -0.000000 -0.000000 -0.000000 -0.000000 -0.000000 -0.000000 -0.000000 -0.000000 -0.000000 -0.000000 -0.000000 -0.000000 -0.000000 -0.000000 -0.000000 -0.000000 -0.000000 -0.000000 -0.000000 -0.000000 -0.000000 -0.000000 -0.000000 -0.000000 -0.000000 -0.000000 -0.000000 -0.000000 -0.000000 -0.000000 -0.000000 -0.000000 -0.000000 -0.000000 -0.000000 -0.000000 -0.000000 -0.000000 -0.000000 -0.000000 -0.000000 -0.000000 -0.000000 -0.000000 -0.000000 -0.000000 -0.000000 -0.000000 -0.000000 -0.000000 -0.000000 -0.000000 -0.000000 -0.000000 -0.000000 -0.000000 -0.000000 -0.000000 -0.000000 -0.000000 -0.000000 -0.000000 -0.000000 -0.000000 -0.000000 -0.000000 -0.000000 -0.000000 -0.000000 -0.000000 -0.000000 -0.000000 -0.000000 -0.000000 -0.000000 -0.000000 -0.000000 -0.000000 -0.000000 -0.000000 -0.000000 -0.000000 -0.000000 -0.000000 -0.000000 -0.000000 -0.000000 -0.000000 -0.000000 -0.000000 -0.000000 -0.000000 -0.000000 -0.000000 -0.000000 -0.000000 -0.000000 -0.000000 -0.000000 -0.000000 -0.000000 -0.000000 -0.000000 -0.000000 -0.000000 -0.000000 -0.000000 -0.000000 -0.000000 -0.000000 -0.000000 -0.000000 -0.000000 -0.000000 -0.000000 -0.000000 -0.000000 -0.000000 -0.000000 -0.000000 -0.000000 -0.000000 -0.000000 -0.000000 -0.000000 -0.000000 -0.000000 -0.000000 -0.000000 -0.000000 -0.000000 -0.000000 -0.000000 -0.000000 -0.000000 -0.000000 -0.000000 -0.000000 -0.000000 -0.000000 -0.000000 -0.000000 -0.000000 -0.000000 -0.000000 -0.000000 -0.000000 -0.000000 -0.000000 -0.000000 -0.000000 -0.000000 -0.000000 -0.000000 -0.000000 -0.000000 -0.000000 -0.000000 -0.000000 -0.000000 -0.000000 -0.000000 -0.000000 -0.000000 -0.000000 -0.000000 -0.000000 -0.000000 -0.000000 -0.000000 -0.000000 -0.000000 -0.000000 -0.000000 -0.000000 -0.000000 -0.000000 -0.000000 -0.000000 -0.000000 -0.000000 -0.000000 -0.000000 -0.000000 -0.000000 -0.000000 -0.000000 -0.000000 -0.000000 -0.000000 -0.000000 -0.000000 -0.000000 -0.000000 -0.000000 -0.000000 -0.000000 -0.000000 -0.000000 -0.000000 -0.000000 -0.000000 -0.000000 -0.000000 -0.000000 -0.000000 -0.000000 -0.000000 -0.000000 -0.000000 -0.000000 -0.000000 -0.000000 -0.000000 -0.000000 -0.000000 -0.000000 -0.000000 -0.000000 -0.000000 -0.000000 -0.000000 -0.000000 -0.000000 -0.000000 -0.000000 -0.000000 -0.000000 -0.000000 -0.000000 -0.000000 -0.000000 -0.000000 -0.000000 -0.000000 -0.000000 -0.000000 -0.000000 -0.000000 -0.000000 -0.000000 -0.000000 -0.000000 -0.000000 -0.000000 -0.000000 -0.000000 -0.000000 -0.000000 -0.000000 -0.000000 -0.000000 -0.000000 -0.000000 -0.000000 -0.000000 -0.000000 -0.000000 -0.000000 -0.000000 -0.000000 -0.000000 -0.000000 -0.000000 -0.000000 -0.000000 -0.000000 -0.000000 -0.000000 -0.000000 -0.000000 -0.000000 -0.000000 -0.000000 -0.000000 -0.000000 -0.000000 -0.000000 -0.000000 -0.000000 -0.000000 -0.000000 -0.000000 -0.000000 -0.000000 -0.000000 -0.000000 -0.000000 -0.000000 -0.000000 -0.000000 -0.000000 -0.000000 -0.000000 -0.000000 -0.000000 -0.000000 -0.000000 -0.000000 -0.000000 -0.000000 -0.000000 -0.000000 -0.000000 -0.000000 -0.000000 -0.000000 -0.000000 -0.000000 -0.000000 -0.000000 -0.000000 -0.000000 -0.000000 -0.000000 -0.000000 -0.000000 -0.000000 -0.000000 -0.000000 -0.000000 -0.000000 -0.000000 -0.000000 -0.000000 -0.000000 -0.000000 -0.000000 -0.000000 -0.000000 -0.000000 -0.000000 -0.000000 -0.000000 -0.000000 -0.000000 -0.000000 0.000000 0.000000 0.000000 0.000000 0.000000 0.000000 0.000000 0.000000 0.000000 0.000000 0.000000 0.000000 0.000000 0.000000 0.000000 0.000000 0.000000 0.000000 0.000000 0.000000 0.000000 0.000000 0.000000 0.000000 0.000000 0.000000 0.000000 0.000000 0.000000 0.000000 0.000000 0.000000 0.000000 0.000000 0.000000 0.000000 0.000000 0.000000 0.000000 0.000000 0.000000 0.000000 0.000000 0.000000 0.000000 0.000000 0.000000 0.000000 0.000000 0.000000 0.000000 0.000000 0.000000 0.000000 0.000000 0.000000 0.000000 0.000000 0.000000 0.000000 0.000000 0.000000 0.000000 0.000000 0.000000 0.000000 0.000001 0.000001 0.000001 0.000001 0.000001 0.000001 0.000001 0.000001 0.000001 0.000001 0.000001 0.000001 0.000001 0.000001 0.000001 0.000001 0.000001 0.000001 0.000002 0.000002 0.000002 0.000002 0.000002 0.000002 0.000003 0.000003 0.000003 0.000003 0.000003 0.000003 0.000005 0.000005 0.000005 0.000005 0.000005 0.000005 0.000007 0.000007 0.000007 0.000007 0.000007 0.000007 0.000011 0.000011 0.000011 0.000011 0.000011 0.000010 0.000016 0.000016 0.000016 0.000016 0.000016 0.000015 0.000024 0.000024 0.000024 0.000024 0.000023 0.000023 0.000034 0.000034 0.000034 0.000034 0.000034 0.000033 0.000050 0.000050 0.000050 0.000050 0.000049 0.000048 0.000072 0.000072 0.000072 0.000072 0.000071 0.000069 0.000104 0.000104 0.000104 0.000104 0.000102 0.000100 0.000150 0.000150 0.000150 0.000150 0.000147 0.000144 0.000215 0.000215 0.000215 0.000214 0.000211 0.000207 0.000306 0.000306 0.000306 0.000306 0.000300 0.000295 0.000435 0.000435 0.000435 0.000434 0.000427 0.000419 0.000615 0.000615 0.000615 0.000614 0.000604 0.000593 0.000866 0.000866 0.000866 0.000864 0.000851 0.000836 0.001214 0.001214 0.001214 0.001212 0.001194 0.001173 0.001695 0.001695 0.001695 0.001693 0.001668 0.001640 0.002357 0.002357 0.002357 0.002354 0.002320 0.002282 0.003263 0.003263 0.003263 0.003258 0.003213 0.003162 0.004497 0.004497 0.004497 0.004491 0.004430 0.004363 0.006170 0.006170 0.006170 0.006162 0.006081 0.005992 0.008427 0.008427 0.008427 0.008416 0.008311 0.008193 0.011458 0.011458 0.011458 0.011444 0.011306 0.011153 0.015507 0.015507 0.015507 0.015490 0.015314 0.015118 0.020890 0.020890 0.020890 0.020868 0.020650 0.020412 0.028008 0.028008 0.028008 0.027983 0.027728 0.027463 0.037365 0.037365 0.037365 0.037341 0.037089 0.036860 0.049587 0.049587 0.049587 0.049576 0.049453 0.049458 0.065419 0.065419 0.065419 0.065458 0.065823 0.066613 0.085690 0.085690 0.085690 0.085878 0.087694 0.090763 0.111172 0.111172 0.111172 0.111745 0.117487 0.126917 0.142189 0.142189 0.142189 0.143633 0.159157 0.186716 0.177960 0.177960 0.177960 0.180923 0.215214 0.302873 0.216178 0.216178 0.216178 0.220896 0.278236 0.441621 0.700532 1.034543 1.386201 1.788362 2.261766 2.824134 3.493030 4.286792 5.224802 6.327438 7.615808 9.111312 10.835033 12.806938 15.044900 17.563514 20.372730 23.476303 26.870100 30.540278 34.461426 38.594707 42.886110 47.264908 51.642422 55.911229 59.944914 63.598476 66.709498 69.100119 70.579865 70.949308 70.004510 67.542114 63.364943 57.287871 49.143729 38.788952 26.108667 11.020868 -6.520722 -26.525634 -48.968276 -73.793565 -100.929034 -130.308445 -161.917519 -195.885388 -232.675365 -273.497770 -321.226383 -382.465460 -472.266334 -625.161910 -921.331534 -1578.776083 -2905.525646 -783.559484 2941.549905 1981.934125 846.088394 186.311873 -618.404647 -2403.038846 -3114.892757 2629.422511 4419.489679 2881.477229 2513.090455 2440.684726 2482.627967 2569.774716 2671.492932 2762.505220 2792.331554 2661.288938 2305.095565 2776.525713 6360.553634 10001.203416 7909.751995 6792.056181 8616.106333 10380.759463 12793.397641 12140.546810 13067.170680 13445.813999 13308.745444 14534.407733 15033.215738 15586.452461 14725.644185 13359.006072 13251.133607 13422.624726 15255.302939 13354.849293 14583.548059 15817.453858 16775.063296 17331.747557 17369.826037 17369.826037 17369.826037 0.254771 0.254771 0.254771 0.260712 0.333732 0.528597 0.770182 1.062039 1.402766 1.802454 2.276328 2.840421 3.511668 4.308147 5.249109 6.354843 7.646372 9.144998 10.871682 12.846247 15.086389 17.606501 20.416304 23.519303 26.911094 30.577559 34.493012 38.618355 42.899350 47.265082 51.626757 55.876911 59.889187 63.518755 66.603488 68.965941 70.416177 70.755425 69.780498 67.288867 63.084226 56.982332 48.816875 38.445102 25.752888 10.658944 -6.882195 -26.878819 -49.302848 -74.093527 -101.165130 -130.420609 -161.775074 -195.197854 -230.793940 -268.974757 -310.836167 -359.011914 -419.568295 -505.837734 -644.202504 -856.038319 -1090.468381 -224.342198 1107.675153 983.775310 659.113180 358.412758 20.980914 -299.606935 -127.724776 1578.220399 2415.706697 2394.095506 2349.248710 2395.070355 2494.095004 2626.622671 2785.824203 2967.902311 3159.878475 3339.824917 3605.494916 4382.829029 5985.591118 7743.730061 8425.102400 8764.513546 9534.040748 10441.498223 11358.884335 11515.410076 11796.107569 12258.334860 12504.127237 13105.907209 13644.149801 14073.056602 13881.745315 13492.981691 13570.263623 14583.482244 15689.202456 14686.321259 14790.079293 15542.365917 16566.011310 17353.718071 17491.387447 17491.387447 17491.387447 0.276594 0.276594 0.276594 0.283362 0.361855 0.566027 0.803026 1.084865 1.419629 1.817931 2.292775 2.858998 3.532997 4.332607 5.276953 6.386230 7.681364 9.183548 10.913605 12.891189 15.133798 17.655592 20.466030 23.568332 26.957785 30.619959 34.528852 38.645072 42.914120 47.264875 51.608405 55.837207 59.824993 63.427129 66.481819 68.812094 70.228636 70.533418 69.524111 66.999129 62.763157 56.632955 48.443189 38.052015 25.346135 10.245025 -7.295977 -27.284012 -49.688747 -74.444275 -101.452688 -130.588405 -161.700841 -194.610358 -229.087856 -264.800768 -301.194681 -337.251964 -370.997178 -398.390068 -410.275123 -384.322252 -256.277511 37.203466 356.189764 503.163640 521.376586 506.557427 516.402858 620.561665 921.576830 1402.872838 1809.918094 2051.607392 2211.822859 2354.118210 2504.907676 2679.327827 2891.180305 3155.436457 3487.546670 3905.704323 4447.239286 5174.048454 6090.857194 7039.945305 7830.076146 8490.833381 9142.788187 9796.830644 10396.597344 10892.805349 11362.319781 11840.075529 12306.922127 12759.715967 13165.546478 13474.310437 13658.642620 13806.661160 14055.030305 14453.268459 14897.798642 15263.742614 15770.272075 16359.807633 17004.089510 17474.467370 17565.661554 17565.661554 17565.661554 0.279650 0.279650 0.279650 0.286652 0.365590 0.570626 0.807400 1.088320 1.422459 1.820642 2.295701 2.862321 3.536820 4.336994 5.281947 6.391857 7.687637 9.190457 10.921117 12.899239 15.142287 17.664379 20.474928 23.577100 26.966130 30.627530 34.535243 38.649824 42.916727 47.264795 51.605072 55.830047 59.813445 63.410666 66.459977 68.784491 70.195002 70.493616 69.478158 66.947210 62.705634 56.570370 48.376255 37.981609 25.273279 10.170872 -7.370144 -27.356728 -49.758206 -74.507877 -101.505950 -130.622395 -161.696356 -194.524862 -228.826473 -264.152163 -299.689778 -333.854916 -363.447157 -381.925349 -376.055994 -320.986022 -179.868144 56.129951 299.699254 447.172087 503.585687 528.653513 583.514846 730.145208 1014.895499 1400.133232 1753.547745 2008.299761 2191.675967 2347.890445 2506.642600 2687.594962 2907.620589 3184.497285 3537.521027 3987.796074 4560.865085 5277.655906 6113.361931 6968.830051 7740.116395 8422.211568 9069.434841 9699.299680 10288.123717 10818.606735 11320.890735 11813.600978 12287.070488 12730.518006 13121.860602 13432.290367 13657.173871 13855.589635 14113.948744 14472.225645 14892.796317 15346.885305 15878.429440 16465.481504 17065.092448 17492.327770 17576.122929 17576.122929 17576.122929 0.279650 0.279650 0.279650 0.286652 0.365590 0.570626 0.807400 1.088320 1.422459 1.820642 2.295701 2.862321 3.536820 4.336994 5.281947 6.391857 7.687637 9.190457 10.921117 12.899239 15.142287 17.664379 20.474928 23.577100 26.966130 30.627530 34.535243 38.649824 42.916727 47.264795 51.605072 55.830047 59.813445 63.410666 66.459977 68.784491 70.195002 70.493616 69.478158 66.947210 62.705634 56.570370 48.376255 37.981609 25.273279 10.170872 -7.370144 -27.356728 -49.758206 -74.507877 -101.505950 -130.622395 -161.696356 -194.524862 -228.826473 -264.152163 -299.689778 -333.854916 -363.447157 -381.925349 -376.055994 -320.986022 -179.868144 56.129951 299.699254 447.172087 503.585687 528.653513 583.514846 730.145208 1014.895499 1400.133232 1753.547745 2008.299761 2191.675967 2347.890445 2506.642600 2687.594962 2907.620589 3184.497285 3537.521027 3987.796074 4560.865085 5277.655906 6113.361931 6968.830051 7740.116395 8422.211568 9069.434841 9699.299680 10288.123717 10818.606735 11320.890735 11813.600978 12287.070488 12730.518006 13121.860602 13432.290367 13657.173871 13855.589635 14113.948744 14472.225645 14892.796317 15346.885305 15878.429440 16465.481504 17065.092448 17492.327770 17576.122929 17576.122929 17576.122929 0.279650 0.279650 0.279650 0.286652 0.365590 0.570626 0.807400 1.088320 1.422459 1.820642 2.295701 2.862321 3.536820 4.336994 5.281947 6.391857 7.687637 9.190457 10.921117 12.899239 15.142287 17.664379 20.474928 23.577100 26.966130 30.627530 34.535243 38.649824 42.916727 47.264795 51.605072 55.830047 59.813445 63.410666 66.459977 68.784491 70.195002 70.493616 69.478158 66.947210 62.705634 56.570370 48.376255 37.981609 25.273279 10.170872 -7.370144 -27.356728 -49.758206 -74.507877 -101.505950 -130.622395 -161.696356 -194.524862 -228.826473 -264.152163 -299.689778 -333.854916 -363.447157 -381.925349 -376.055994 -320.986022 -179.868144 56.129951 299.699254 447.172087 503.585687 528.653513 583.514846 730.145208 1014.895499 1400.133232 1753.547745 2008.299761 2191.675967 2347.890445 2506.642600 2687.594962 2907.620589 3184.497285 3537.521027 3987.796074 4560.865085 5277.655906 6113.361931 6968.830051 7740.116395 8422.211568 9069.434841 9699.299680 10288.123717 10818.606735 11320.890735 11813.600978 12287.070488 12730.518006 13121.860602 13432.290367 13657.173871 13855.589635 14113.948744 14472.225645 14892.796317 15346.885305 15878.429440 16465.481504 17065.092448 17492.327770 17576.122929 17576.122929 17576.122929 -1388.839135 -1435.509446 -1494.961122 -1573.671414 -1686.279064 -1862.054568 -2182.864831 -2644.113207 -1637.104381 -244.778722 -750.417392 -1657.605318 -1004.344042 724.116600 487.309177 -237.850290 -940.671439 -1046.500781 655.269457 1273.812541 660.283123 215.251748 -225.455384 -908.258751 -1046.577479 914.749787 2054.639948 2170.378201 2466.781101 2858.900895 3606.055881 4672.139283 4562.748020 5367.913231 5744.415913 6322.743825 7419.311587 7598.821255 8112.045625 8397.646562 9564.970612 10363.583461 10461.329846 11185.123398 12064.539719 12969.692800 13934.182869 12979.513006 13666.496655 15453.024025 15669.899122 14643.318319 13961.803291 13884.091046 13884.091046 13884.091046 -206.772664 -114.368506 4013.438280 15925.182888 16241.395126 10910.859300 14240.003631 16249.435373 15556.208649 14545.824981 14802.768817 15072.132024 14479.147323 13318.411234 13895.422092 14432.712337 16766.562295 13901.167290 15033.943774 15570.386819 16545.887875 15735.981346 11203.549760 11403.434812 12170.892263 13215.760267 13892.186946 12892.827016 13095.940840 14996.030488 12946.649305 15405.646824 12252.751517 13927.507235 13663.987540 13876.915915 14622.931872 14664.555092 16150.758933 15731.268419 14782.304804 14551.025301 12702.772564 15613.064083 15117.828304 16324.505794 11559.305088 16314.204196 11671.747953 15455.267900 13644.852715 16204.518873 14508.336723 14287.673286 14287.673286 14287.673286 -32.244289 3394.398549 15952.951771 5277.949773 14816.867875 15687.340545 17206.055881 16934.710430 14326.228236 17512.352344 15619.411864 15596.721073 17184.114451 13797.299516 13520.015620 14375.923134 16040.850422 14170.225641 14672.049909 16533.858498 13902.435951 12382.588498 12643.866560 14926.576445 13593.583307 11086.048329 13315.113089 13668.902571 11229.007521 13405.426842 12289.806509 12098.965124 11821.871259 14639.514062 13371.287659 12081.877620 13235.170664 13008.025816 12709.111745 15344.465987 14572.903833 11612.008105 13211.219377 15971.148783 13514.157568 11352.643454 13708.902758 16056.629897 12805.218803 16880.472728 15881.852341 16005.221290 15014.372592 14827.621060 14827.621060 14827.621060 -683.790508 2858.097825 14303.321737 13721.786110 15907.556040 16192.015085 14323.899573 15377.913761 13845.550230 13915.747553 14382.732836 15252.123510 14159.673057 13612.158267 13996.320866 14604.975485 15222.376129 13389.806472 12881.786095 15633.431349 15099.713353 14768.407512 10693.959306 14578.016878 14560.259195 14360.347141 16012.424364 13833.487966 13475.137004 13151.142809 12375.903402 14059.377849 14467.217058 12598.793102 13606.636091 12422.891967 13440.683122 13463.481095 13207.834758 11952.666660 13498.612876 13322.974737 12706.922352 10553.458213 11905.840758