<VTKFile type="PolyData">
<PolyData>
<Piece NumberOfPoints="8632" NumberOfVerts="8632" NumberOfLines="0" NumberOfStrips="0" NumberOfPolys="0">
<PointData>
<DataArray type="Float64" Name="Pressure" format="ascii">
 -0.000453 -0.000453 -0.000453 -0.000491 -0.000932 -0.002178 -0.003897 -0.006427 -0.010200 -0.015841 -0.024261 -0.036764 -0.055202 -0.082172 -0.121293 -0.177547 -0.257732 -0.371019 -0.529651 -0.749794 -1.052555 -1.465175 -2.022405 -2.768043 -3.756609 -5.055108 -6.744800 -8.922889 -11.703990 -15.221219 -19.626748 -25.091624 -31.804700 -39.970542 -49.806258 -61.537294 -75.392426 -91.598315 -110.374263 -131.927965 -156.453216 -184.130567 -215.131751 -249.628270 -287.803769 -329.868739 -376.074584 -426.722348 -482.158936 -542.749770 -608.808509 -680.444487 -757.239438 -837.561578 -917.139480 -987.078315 -1033.005223 -1034.574933 -962.676894 -808.150361 -635.589731 -504.422546 -376.947270 -229.467375 -136.429539 -134.003560 -156.098482 -124.619960 -40.861490 9.757953 13.265918 51.074429 151.538160 237.303802 291.134523 383.454072 509.766397 591.599600 633.202045 717.826230 918.422709 1219.353095 1539.128877 1880.473651 2336.979688 2973.205600 3735.508781 4512.172885 5248.572278 5974.149570 6743.682491 7541.672680 8343.039731 9134.403640 9861.467367 10519.499843 11128.895011 11691.849842 12227.689306 12728.034282 13169.670340 13564.623683 13913.460059 14204.085321 14466.995596 14724.301456 14914.743350 14967.940174 14968.090756 14968.090756 14968.090756 -0.000453 -0.000453 -0.000453 -0.000491 -0.000932 -0.002178 -0.003897 -0.006427 -0.010200 -0.015841 -0.024261 -0.036764 -0.055202 -0.082172 -0.121293 -0.177547 -0.257732 -0.371019 -0.529651 -0.749794 -1.052555 -1.465175 -2.022405 -2.768043 -3.756609 -5.055108 -6.744800 -8.922889 -11.703990 -15.221219 -19.626748 -25.091624 -31.804700 -39.970542 -49.806258 -61.537294 -75.392426 -91.598315 -110.374263 -131.927965 -156.453216 -184.130567 -215.131751 -249.628270 -287.803769 -329.868739 -376.074584 -426.722348 -482.158936 -542.749770 -608.808509 -680.444487 -757.239438 -837.561578 -917.139480 -987.078315 -1033.005223 -1034.574933 -962.676894 -808.150361 -635.589731 -504.422546 -376.947270 -229.467375 -136.429539 -134.003560 -156.098482 -124.619960 -40.861490 9.757953 13.265918 51.074429 151.538160 237.303802 291.134523 383.454072 509.766397 591.599600 633.202045 717.826230 918.422709 1219.353095 1539.128877 1880.473651 2336.979688 2973.205600 3735.508781 4512.172885 5248.572278 5974.149570 6743.682491 7541.672680 8343.039731 9134.403640 9861.467367 10519.499843 11128.895011 11691.849842 12227.689306 12728.034282 13169.670340 13564.623683 13913.460059 14204.085321 14466.995596 14724.301456 14914.743350 14967.940174 14968.090756 14968.090756 14968.090756 -0.000453 -0.000453 -0.000453 -0.000491 -0.000932 -0.002178 -0.003897 -0.006427 -0.010200 -0.015841 -0.024261 -0.036764 -0.055202 -0.082172 -0.121293 -0.177547 -0.257732 -0.371019 -0.529651 -0.749794 -1.052555 -1.465175 -2.022405 -2.768043 -3.756609 -5.055108 -6.744800 -8.922889 -11.703990 -15.221219 -19.626748 -25.091624 -31.804700 -39.970542 -49.806258 -61.537294 -75.392426 -91.598315 -110.374263 -131.927965 -156.453216 -184.130567 -215.131751 -249.628270 -287.803769 -329.868739 -376.074584 -426.722348 -482.158936 -542.749770 -608.808509 -680.444487 -757.239438 -837.561578 -917.139480 -987.078315 -1033.005223 -1034.574933 -962.676894 -808.150361 -635.589731 -504.422546 -376.947270 -229.467375 -136.429539 -134.003560 -156.098482 -124.619960 -40.861490 9.757953 13.265918 51.074429 151.538160 237.303802 291.134523 383.454072 509.766397 591.599600 633.202045 717.826230 918.422709 1219.353095 1539.128877 1880.473651 2336.979688 2973.205600 3735.508781 4512.172885 5248.572278 5974.149570 6743.682491 7541.672680 8343.039731 9134.403640 9861.467367 10519.499843 11128.895011 11691.849842 12227.689306 12728.034282 13169.670340 13564.623683 13913.460059 14204.085321 14466.995596 14724.301456 14914.743350 14967.940174 14968.090756 14968.090756 14968.090756 -0.000448 -0.000448 -0.000448 -0.000484 -0.000920 -0.002153 -0.003869 -0.006401 -0.010170 -0.015801 -0.024204 -0.036683 -0.055085 -0.082006 -0.121058 -0.177219 -0.257277 -0.370394 -0.528802 -0.748652 -1.051033 -1.463168 -2.019786 -2.764661 -3.752288 -5.049645 -6.737969 -8.914442 -11.693663 -15.208739 -19.611845 -25.074040 -31.784207 -39.946956 -49.779454 -61.507222 -75.359110 -91.561859 -110.334835 -131.885769 -156.408453 -184.083388 -215.082209 -249.576293 -287.749216 -329.811618 -376.015675 -426.664745 -482.111787 -542.737369 -608.892485 -680.777695 -758.192547 -839.993688 -922.586318 -997.639519 -1051.145290 -1064.420551 -996.423660 -793.024122 -616.346465 -508.064335 -391.846188 -209.443737 -105.757833 -126.547628 -177.027123 -146.838869 -29.797084 25.050338 -2.231712 23.266896 153.274257 245.965313 271.483724 364.998486 522.158258 602.538790 613.036609 667.280518 869.260819 1199.363177 1515.262562 1815.497009 2235.845430 2882.242393 3682.098124 4485.676074 5219.495988 5917.017492 6693.200815 7509.501314 8311.307819 9135.884100 9875.327972 10531.391114 11161.457406 11733.107312 12283.839130 12807.513300 13244.611489 13631.829613 13980.703980 14248.852035 14477.794206 14737.488873 14965.183321 15012.236097 15007.084186 15007.084186 15007.084186 -0.000388 -0.000388 -0.000388 -0.000416 -0.000778 -0.001830 -0.003513 -0.006126 -0.009877 -0.015411 -0.023647 -0.035877 -0.053925 -0.080352 -0.118720 -0.173947 -0.252741 -0.364168 -0.520340 -0.737263 -1.035860 -1.443158 -1.993667 -2.730923 -3.709167 -4.995123 -6.669782 -8.830111 -11.590545 -15.084103 -19.462974 -24.898358 -31.579427 -39.711236 -49.511547 -61.206600 -75.026038 -91.197373 -109.940616 -131.463879 -155.960934 -183.611767 -214.587010 -249.056802 -287.203940 -329.240438 -375.425873 -426.085994 -481.632542 -542.593272 -609.682692 -683.995671 -767.518242 -864.209360 -982.440973 -1117.510041 -1253.980487 -1407.367769 -1421.690091 -618.475303 -161.527154 -557.724407 -724.656985 63.303391 432.889393 -39.231733 -489.801970 -595.042442 222.977593 368.860347 -237.010834 -521.116903 285.451213 520.519183 -81.274679 -13.550813 826.434102 818.814071 383.289826 -2.875509 147.020059 1101.879686 1363.217896 1075.927199 929.544685 1680.751495 3066.058718 4182.675390 4984.330656 5113.247848 6027.063003 7040.159936 7574.104857 8776.492049 9716.298776 10259.531501 11223.430213 11968.633888 12641.584700 13565.170869 13935.107753 14219.743268 14752.255551 14889.954277 14587.347470 14445.123845 15387.985187 15539.035398 15455.385189 15455.385189 15455.385189 -0.000311 -0.000311 -0.000311 -0.000331 -0.000577 -0.001280 -0.002791 -0.005725 -0.009530 -0.014971 -0.023023 -0.034976 -0.052629 -0.078501 -0.116103 -0.170281 -0.247655 -0.357180 -0.510833 -0.724458 -1.018785 -1.420621 -1.964225 -2.692861 -3.660483 -4.933519 -6.592681 -8.734687 -11.473781 -14.942878 -19.294178 -24.699040 -31.346960 -39.443500 -49.207104 -60.864839 -74.647259 -90.782779 -109.492166 -130.983995 -155.452053 -183.075787 -214.024781 -248.467948 -286.587683 -328.598820 -374.772572 -425.468364 -481.185450 -542.670855 -611.183328 -689.172457 -782.041570 -902.756399 -1085.177140 -1287.019938 -1501.368719 -1873.767661 -2283.761462 -969.723489 276.509107 -664.435454 -1341.185956 402.986736 1301.196669 118.619317 -1082.810223 -1530.809786 698.668428 1159.740655 -773.763629 -1816.600452 694.148188 1427.872824 -1004.146185 -916.624747 1810.187188 1459.015763 107.392908 -1276.654473 -1330.915864 1500.210249 1661.050489 117.380824 -1386.987984 -188.789338 2154.193773 2844.815454 5593.413833 3167.282915 4607.047620 7572.360394 4699.842906 6390.528848 9457.258789 7184.508531 9918.133605 10960.872640 10469.559730 13902.221781 13225.193116 13167.950003 15582.105011 16570.730777 14639.258146 11241.657465 14682.692405 16354.223660 16143.971623 16143.971623 16143.971623 -0.000301 -0.000301 -0.000301 -0.000321 -0.000551 -0.001196 -0.000240 -0.000240 -0.000240 -0.000253 -0.000395 -0.000721 -0.000161 -0.000161 -0.000161 -0.000166 -0.000221 -0.000315 -0.000103 -0.000103 -0.000103 -0.000105 -0.000123 -0.000153 -0.000064 -0.000064 -0.000064 -0.000064 -0.000070 -0.000079 -0.000039 -0.000039 -0.000039 -0.000039 -0.000040 -0.000043 -0.000023 -0.000023 -0.000023 -0.000023 -0.000023 -0.000024 -0.000014 -0.000014 -0.000014 -0.000014 -0.000014 -0.000014 -0.000008 -0.000008 -0.000008 -0.000008 -0.000008 -0.000008 -0.000005 -0.000005 -0.000005 -0.000005 -0.000005 -0.000004 -0.000003 -0.000003 -0.000003 -0.000003 -0.000003 -0.000003 -0.000002 -0.000002 -0.000002 -0.000002 -0.000001 -0.000001 -0.000001 -0.000001 -0.000001 -0.000001 -0.000001 -0.000001 -0.000000 -0.000000 -0.000000 -0.000000 -0.000000 -0.000000 -0.000000 -0.000000 -0.000000 -0.000000 -0.000000 -0.000000 -0.000000 -0.000000 -0.000000 -0.000000 -0.000000 -0.000000 -0.000000 -0.000000 -0.000000 -0.000000 -0.000000 -0.000000 -0.000000 -0.000000 -0.000000 -0.000000 -0.000000 -0.000000 -0.000000 -0.000000 -0.000000 -0.000000 -0.000000 -0.000000 -0.000000 -0.000000 -0.000000 -0.000000 -0.000000 -0.000000 -0.000000 -0.000000 -0.000000 -0.000000 -0.000000 -0.000000 -0.000000 -0.000000 -0.000000 -0.000000 -0.000000 -0.000000 -0.000000 -0.000000 -0.000000 -0.000000 -0.000000 -0.000000 -0.000000 -0.000000 -0.000000 -0.000000 -0.000000 -0.000000 0.000000 0.000000 0.000000 -0.000000 0.000000 0.000000 0.000000 0.000000 0.000000 -0.000000 0.000000 0.000000 0.000000 0.000000 0.000000 -0.000000 0.000000 0.000000 0.000000 0.000000 0.000000 -0.000000 0.000000 0.000000 0.000000 0.000000 0.000000 -0.000000 0.000000 0.000000 0.000000 0.000000 0.000000 -0.000000 0.000000 0.000000 0.000000 0.000000 0.000000 -0.000000 0.000000 0.000000 0.000000 0.000000 0.000000 -0.000000 0.000000 0.000000 0.000000 0.000000 0.000000 -0.000000 0.000000 0.000000 0.000000 0.000000 0.000000 -0.000000 0.000000 0.000000 0.000000 0.000000 0.000000 -0.000000 0.000000 0.000000 0.000000 0.000000 0.000000 -0.000000 0.000000 0.000000 0.000000 0.000000 0.000000 -0.000000 0.000000 0.000000 0.000000 0.000000 0.000000 -0.000000 0.000000 0.000000 0.000000 0.000000 0.000000 0.000000 0.000000 0.000000 -0.000000 -0.000000 -0.000000 0.000000 -0.000000 0.000000 -0.000000 -0.000000 -0.000000 -0.000000 -0.000000 -0.000000 -0.000000 -0.000000 -0.000000 -0.000000 -0.000000 -0.000000 -0.000000 -0.000000 -0.000000 -0.000000 -0.000000 -0.000000 -0.000000 -0.000000 -0.000000 -0.000000 -0.000000 -0.000000 -0.000000 -0.000000 -0.000000 -0.000000 -0.000000 -0.000000 -0.000000 -0.000000 -0.000000 -0.000000 -0.000000 -0.000000 -0.000000 -0.000000 -0.000000 -0.000000 -0.000000 -0.000000 -0.000000 -0.000000 -0.000000 -0.000000 -0.000000 -0.000000 -0.000000 -0.000000 -0.000000 -0.000000 -0.000000 -0.000000 -0.000000 -0.000000 -0.000000 -0.000000 -0.000000 -0.000000 -0.000000 -0.000000 -0.000000 -0.000000 -0.000000 -0.000000 -0.000000 -0.000000 -0.000000 -0.000000 -0.000000 -0.000000 -0.000000 -0.000000 -0.000000 -0.000000 -0.000000 -0.000000 -0.000000 -0.000000 -0.000000 -0.000000 -0.000000 -0.000000 -0.000000 -0.000000 -0.000000 -0.000000 -0.000000 -0.000000 -0.000000 -0.000000 -0.000000 -0.000000 -0.000000 -0.000000 -0.000000 -0.000000 -0.000000 -0.000000 -0.000000 -0.000000 -0.000000 -0.000000 -0.000000 -0.000000 -0.000000 -0.000000 -0.000000 -0.000000 -0.000000 -0.000000 -0.000000 -0.000000 -0.000000 -0.000000 -0.000000 -0.000000 -0.000000 -0.000000 -0.000000 -0.000000 -0.000000 -0.000000 -0.000000 -0.000000 -0.000000 -0.000000 -0.000000 -0.000000 -0.000000 -0.000000 -0.000000 -0.000000 -0.000000 -0.000000 -0.000000 -0.000000 -0.000000 -0.000000 -0.000000 -0.000000 -0.000000 -0.000000 -0.000000 -0.000000 -0.000000 -0.000000 -0.000000 -0.000000 -0.000000 -0.000000 -0.000000 -0.000000 -0.000000 -0.000000 -0.000000 -0.000000 -0.000000 -0.000000 -0.000000 -0.000000 -0.000000 -0.000000 -0.000000 -0.000000 -0.000000 -0.000000 -0.000000 -0.000000 -0.000000 -0.000000 -0.000000 -0.000000 -0.000000 -0.000000 -0.000000 -0.000000 -0.000000 -0.000000 -0.000000 -0.000000 -0.000000 -0.000000 -0.000000 -0.000000 -0.000000 -0.000000 -0.000000 -0.000000 -0.000000 -0.000000 -0.000000 -0.000000 -0.000000 -0.000000 -0.000000 -0.000000 -0.000000 -0.000000 -0.000000 -0.000000 -0.000000 -0.000000 -0.000000 -0.000000 -0.000000 -0.000000 -0.000000 -0.000000 -0.000000 -0.000000 -0.000000 -0.000000 -0.000000 -0.000000 -0.000000 -0.000000 -0.000000 -0.000000 -0.000000 -0.000000 -0.000000 -0.000000 -0.000000 -0.000000 -0.000000 -0.000000 -0.000000 -0.000000 -0.000000 -0.000000 -0.000000 -0.000000 -0.000000 -0.000000 -0.000000 -0.000000 -0.000000 -0.000000 -0.000000 -0.000000 -0.000000 -0.000000 -0.000000 -0.000000 -0.000000 -0.000000 -0.000000 -0.000000 -0.000000 -0.000000 -0.000000 -0.000000 -0.000000 -0.000000 -0.000000 -0.000000 -0.000000 -0.000000 -0.000000 -0.000000 -0.000000 -0.000000 -0.000000 -0.000000 -0.000000 -0.000000 -0.000000 -0.000000 -0.000000 -0.000000 -0.000000 -0.000000 -0.000000 -0.000000 -0.000000 -0.000000 -0.000000 -0.000000 -0.000000 -0.000000 -0.000000 -0.000000 -0.000000 -0.000000 -0.000000 -0.000000 -0.000000 -0.000000 -0.000000 -0.000000 -0.000000 -0.000000 -0.000000 -0.000000 -0.000000 -0.000000 -0.000000 -0.000000 -0.000000 -0.000000 -0.000000 -0.000000 -0.000000 -0.000000 -0.000000 -0.000000 -0.000000 -0.000000 -0.000000 -0.000000 -0.000000 -0.000000 -0.000000 -0.000000 -0.000000 -0.000000 -0.000000 -0.000000 -0.000000 -0.000000 -0.000000 -0.000000 -0.000000 -0.000000 -0.000000 -0.000000 -0.000000 -0.000000 -0.000000 -0.000000 -0.000000 -0.000000 -0.000000 -0.000000 -0.000000 -0.000000 -0.000000 -0.000000 -0.000000 -0.000000 -0.000000 -0.000000 -0.000000 -0.000000 -0.000000 -0.000000 -0.000000 -0.000000 -0.000000 -0.000000 -0.000000 -0.000000 -0.000000 -0.000000 -0.000000 -0.000000 -0.000000 -0.000000 -0.000000 -0.000000 -0.000000 -0.000000 -0.000000 -0.000000 -0.000000 -0.000000 -0.000000 -0.000000 -0.000000 -0.000000 -0.000000 -0.000000 -0.000000 -0.000000 -0.000000 -0.000000 -0.000000 -0.000000 -0.000000 -0.000000 -0.000000 -0.000000 -0.000000 -0.000000 -0.000000 -0.000000 -0.000000 -0.000000 -0.000000 -0.000000 -0.000000 -0.000000 -0.000000 -0.000000 -0.000000 -0.000000 -0.000000 -0.000000 -0.000000 -0.000000 -0.000000 -0.000000 -0.000000 -0.000000 -0.000000 -0.000000 -0.000000 -0.000000 -0.000000 -0.000000 -0.000000 -0.000000 -0.000000 -0.000000 -0.000000 -0.000000 -0.000000 -0.000000 -0.000000 -0.000000 -0.000000 -0.000000 -0.000000 -0.000000 -0.000000 -0.000000 -0.000000 -0.000000 -0.000000 -0.000000 -0.000000 -0.000000 -0.000000 -0.000000 -0.000000 -0.000000 -0.000000 -0.000000 -0.000000 -0.000000 -0.000000 -0.000000 -0.000000 -0.000000 -0.000000 -0.000000 -0.000000 -0.000000 -0.000000 -0.000000 -0.000000 -0.000000 -0.000000 -0.000000 -0.000000 -0.000000 -0.000000 -0.000000 -0.000000 -0.000000 -0.000000 -0.000000 -0.000000 -0.000000 -0.000000 -0.000000 -0.000000 -0.000000 -0.000000 -0.000000 -0.000000 -0.000000 -0.000000 -0.000000 -0.000000 -0.000000 -0.000000 -0.000000 -0.000000 -0.000000 -0.000000 -0.000000 -0.000000 -0.000000 -0.000000 -0.000000 -0.000000 -0.000000 -0.000000 -0.000000 -0.000000 -0.000000 -0.000000 -0.000000 -0.000000 -0.000000 -0.000000 -0.000000 -0.000000 -0.000000 -0.000000 -0.000000 -0.000000 -0.000000 -0.000000 -0.000000 -0.000000 -0.000000 -0.000000 -0.000000 -0.000000 -0.000000 -0.000000 -0.000000 -0.000000 -0.000000 -0.000000 -0.000000 -0.000000 -0.000000 -0.000000 -0.000000 -0.000000 -0.000000 -0.000000 -0.000000 -0.000000 -0.000000 -0.000000 -0.000000 -0.000000 -0.000000 -0.000000 -0.000000 -0.000000 -0.000000 -0.000000 -0.000000 -0.000000 -0.000000 -0.000000 -0.000000 -0.000000 -0.000000 -0.000000 -0.000000 -0.000000 -0.000000 -0.000000 -0.000000 -0.000000 -0.000000 -0.000000 -0.000000 -0.000000 -0.000000 -0.000000 -0.000000 -0.000000 -0.000000 -0.000000 -0.000000 -0.000000 -0.000000 -0.000000 -0.000000 -0.000000 -0.000000 -0.000000 -0.000000 -0.000000 -0.000000 -0.000000 -0.000000 -0.000000 -0.000000 -0.000000 -0.000000 -0.000000 -0.000000 -0.000000 -0.000000 -0.000000 -0.000000 -0.000000 -0.000000 -0.000000 -0.000000 -0.000000 -0.000000 -0.000000 -0.000000 -0.000000 -0.000000 -0.000000 -0.000000 -0.000000 -0.000000 -0.000000 -0.000000 -0.000000 -0.000000 -0.000000 -0.000000 -0.000000 -0.000000 -0.000000 -0.000000 -0.000000 -0.000000 -0.000000 -0.000000 -0.000000 -0.000000 -0.000000 -0.000000 -0.000000 -0.000000 -0.000000 -0.000000 -0.000000 -0.000000 -0.000000 -0.000000 -0.000000 -0.000000 -0.000000 -0.000000 -0.000000 -0.000000 -0.000000 -0.000000 -0.000000 -0.000000 -0.000000 -0.000000 -0.000000 -0.000000 -0.000000 -0.000000 -0.000000 -0.000000 -0.000000 -0.000000 -0.000000 -0.000000 -0.000000 -0.000000 -0.000000 -0.000000 -0.000000 -0.000000 -0.000000 -0.000000 -0.000000 -0.000000 -0.000000 -0.000000 -0.000000 -0.000000 -0.000000 -0.000000 -0.000000 -0.000000 -0.000000 -0.000000 -0.000000 -0.000000 -0.000000 -0.000000 -0.000000 -0.000000 -0.000000 -0.000000 -0.000000 -0.000000 -0.000000 -0.000000 -0.000000 -0.000000 -0.000000 -0.000000 -0.000000 -0.000000 -0.000000 -0.000000 -0.000000 -0.000000 -0.000000 -0.000000 -0.000000 -0.000000 -0.000000 -0.000000 -0.000000 -0.000000 -0.000000 -0.000000 -0.000000 -0.000000 -0.000000 -0.000000 -0.000000 -0.000000 -0.000000 -0.000000 -0.000000 -0.000000 -0.000000 -0.000000 -0.000000 -0.000000 -0.000000 -0.000000 -0.000000 -0.000000 -0.000000 -0.000000 -0.000000 -0.000000 -0.000000 -0.000000 0.000000 -0.000000 -0.000000 -0.000000 -0.000000 -0.000000 -0.000000 -0.000000 -0.000000 -0.000000 -0.000000 -0.000000 -0.000000 -0.000000 -0.000000 -0.000000 -0.000000 -0.000000 -0.000000 -0.000000 -0.000000 -0.000000 -0.000000 -0.000000 -0.000000 -0.000000 -0.000000 -0.000000 -0.000000 -0.000000 -0.000000 -0.000000 -0.000000 -0.000000 -0.000000 -0.000000 -0.000000 -0.000000 -0.000000 -0.000000 -0.000000 -0.000000 -0.000000 -0.000000 -0.000000 -0.000000 -0.000000 -0.000000 -0.000000 -0.000000 -0.000000 -0.000000 -0.000000 -0.000000 -0.000000 -0.000000 -0.000000 -0.000000 -0.000000 -0.000000 -0.000000 -0.000000 -0.000000 -0.000000 -0.000000 -0.000000 -0.000000 -0.000000 -0.000000 -0.000000 -0.000000 -0.000000 -0.000000 -0.000000 -0.000000 -0.000000 -0.000000 -0.000000 -0.000000 -0.000000 -0.000000 -0.000000 -0.000000 -0.000000 -0.000000 -0.000000 -0.000000 -0.000000 -0.000000 -0.000000 -0.000000 -0.000000 -0.000000 -0.000000 -0.000000 -0.000000 -0.000000 -0.000000 -0.000000 -0.000000 -0.000000 -0.000000 -0.000000 -0.000000 -0.000000 -0.000000 -0.000000 -0.000000 -0.000000 -0.000000 -0.000000 -0.000000 -0.000000 -0.000000 -0.000000 -0.000000 -0.000000 -0.000000 -0.000000 -0.000000 -0.000000 -0.000000 -0.000000 -0.000000 -0.000000 -0.000000 -0.000000 -0.000000 -0.000000 -0.000000 -0.000000 -0.000000 -0.000000 -0.000000 -0.000000 -0.000000 -0.000000 -0.000000 -0.000000 -0.000000 -0.000000 -0.000000 -0.000000 -0.000000 -0.000000 -0.000000 -0.000000 -0.000000 -0.000000 -0.000000 -0.000000 -0.000000 -0.000000 -0.000000 -0.000000 -0.000000 -0.000000 -0.000000 -0.000000 -0.000000 -0.000000 -0.000000 -0.000000 -0.000000 -0.000000 -0.000000 -0.000000 -0.000000 -0.000000 -0.000000 -0.000000 -0.000000 -0.000000 -0.000000 -0.000000 -0.000000 -0.000000 -0.000000 -0.000000 -0.000000 -0.000000 -0.000000 -0.000000 -0.000000 -0.000000 -0.000000 -0.000000 -0.000000 -0.000000 -0.000000 -0.000000 -0.000000 -0.000000 -0.000000 -0.000000 -0.000000 -0.000000 -0.000000 -0.000000 -0.000000 -0.000000 -0.000000 -0.000000 -0.000000 -0.000000 -0.000000 -0.000000 -0.000000 -0.000000 -0.000000 -0.000000 -0.000000 -0.000000 -0.000000 -0.000000 -0.000000 -0.000000 -0.000000 -0.000000 -0.000000 -0.000000 0.000000 -0.000000 0.000000 -0.000000 -0.000000 -0.000000 -0.000000 0.000000 0.000000 -0.000000 -0.000000 -0.000000 0.000000 -0.000000 0.000000 0.000000 0.000000 0.000000 0.000000 -0.000000 -0.000000 -0.000000 -0.000000 -0.000000 -0.000000 -0.000000 -0.000000 -0.000000 -0.000000 -0.000000 -0.000000 -0.000000 -0.000000 -0.000000 -0.000000 -0.000001 -0.000001 -0.000002 -0.000003 -0.000006 -0.000010 -0.000016 -0.000026 -0.000042 -0.000068 -0.000108 -0.000170 -0.000266 -0.000412 -0.000631 -0.000956 -0.001434 -0.002127 -0.003120 -0.004525 -0.006483 -0.009173 -0.012809 -0.017637 -0.023916 -0.031892 -0.041732 -0.053433 -0.066661 -0.080512 -0.093160 -0.101344 -0.099647 -0.079503 -0.027846 0.074682 0.256079 0.556004 1.029598 1.752246 2.825372 4.383379 6.601724 9.706056 13.982205 19.786671 27.557150 37.822651 51.212959 68.467706 90.446083 118.139158 152.687161 195.402719 247.795185 311.576025 388.592600 480.576161 588.487858 711.104331 842.345533 966.903588 1054.575502 1055.642790 898.502767 383.289117 484.571133 1673.006859 2092.920039 3081.471041 3526.250184 4599.742401 6773.911496 6722.019320 8163.020267 8971.164511 9513.608030 10666.525820 11488.917933 11584.803010 11446.259458 13877.833368 13733.966324 13644.810902 13478.836677 12884.528093 12925.473072 12539.727552 12459.646261 12459.646261 12459.646261 0.000000 0.000000 0.000000 0.000000 -0.000000 -0.000000 -0.000000 -0.000000 -0.000000 -0.000000 -0.000000 -0.000000 -0.000000 -0.000000 -0.000000 -0.000000 -0.000000 -0.000000 -0.000000 -0.000000 -0.000001 -0.000001 -0.000002 -0.000004 -0.000006 -0.000010 -0.000016 -0.000027 -0.000043 -0.000070 -0.000111 -0.000175 -0.000274 -0.000423 -0.000647 -0.000979 -0.001465 -0.002171 -0.003180 -0.004606 -0.006590 -0.009312 -0.012985 -0.017851 -0.024168 -0.032171 -0.042014 -0.053671 -0.066773 -0.080366 -0.092549 -0.099956 -0.097026 -0.074994 -0.020533 0.086058 0.273220 0.581172 1.065757 1.803210 2.895980 4.479660 6.731059 9.877302 14.205774 20.074526 27.922737 38.280777 51.779695 69.160417 91.283726 119.142913 153.881313 196.815414 249.458605 313.527001 390.881761 483.316888 592.038487 716.620641 853.226345 992.117373 1115.389592 1198.341911 1222.555358 1253.171962 1492.254464 2122.583356 2598.544452 3037.850175 3588.746420 4417.710318 5515.311948 6118.772119 6530.586763 7231.011804 7878.457109 8412.499857 8877.103569 9431.786878 9923.841828 11287.882106 12267.417034 13910.639411 14178.489087 13237.117305 13039.459673 12386.542418 12276.974090 12276.974090 12276.974090 0.000000 0.000000 0.000000 0.000000 0.000000 0.000000 0.000000 -0.000000 -0.000000 -0.000000 -0.000000 -0.000000 -0.000000 -0.000000 -0.000000 -0.000000 -0.000000 -0.000000 -0.000000 -0.000000 -0.000001 -0.000001 -0.000002 -0.000004 -0.000006 -0.000010 -0.000017 -0.000028 -0.000045 -0.000072 -0.000115 -0.000181 -0.000282 -0.000435 -0.000664 -0.001004 -0.001502 -0.002222 -0.003250 -0.004699 -0.006714 -0.009472 -0.013186 -0.018097 -0.024455 -0.032487 -0.042330 -0.053931 -0.066883 -0.080169 -0.091804 -0.098300 -0.093928 -0.069697 -0.011976 0.099332 0.293178 0.610426 1.107720 1.862277 2.977716 4.590993 6.880459 10.074924 14.463538 20.406122 28.343541 38.807730 52.431206 69.956429 92.246075 120.296072 155.253349 198.438663 251.369274 315.764089 393.492211 486.395862 595.892723 722.277219 863.766597 1015.682215 1170.828506 1323.080269 1476.855560 1660.326688 1923.437388 2284.364772 2703.407213 3169.559759 3698.793156 4305.587712 4947.131555 5552.823577 6132.356768 6709.904716 7286.350415 7842.998112 8366.356584 8857.688549 9338.869158 9832.567290 10309.069806 11003.935658 11564.723620 11871.727588 12079.975288 12123.869978 12140.488264 12140.488264 12140.488264 -0.000000 -0.000000 -0.000000 -0.000000 -0.000000 0.000000 0.000000 -0.000000 -0.000000 -0.000000 -0.000000 -0.000000 -0.000000 -0.000000 -0.000000 -0.000000 -0.000000 -0.000000 -0.000000 -0.000000 -0.000001 -0.000001 -0.000002 -0.000004 -0.000006 -0.000010 -0.000017 -0.000028 -0.000045 -0.000073 -0.000116 -0.000182 -0.000283 -0.000437 -0.000668 -0.001009 -0.001508 -0.002231 -0.003262 -0.004716 -0.006736 -0.009500 -0.013222 -0.018141 -0.024506 -0.032543 -0.042386 -0.053977 -0.066900 -0.080131 -0.091666 -0.097997 -0.093363 -0.068733 -0.010422 0.101738 0.296791 0.615716 1.115302 1.872941 2.992462 4.611066 6.907379 10.110514 14.509935 20.465777 28.419211 38.902450 52.548277 70.099433 92.418941 120.503208 155.499812 198.730251 251.712393 316.165361 393.958829 486.941172 596.560880 723.221970 865.458819 1019.372032 1179.372443 1341.843632 1512.600916 1713.852836 1977.565038 2318.784560 2724.455308 3186.458069 3709.161651 4290.938441 4903.289084 5507.917639 6097.018034 6680.116381 7256.702656 7813.693657 8337.529291 8823.285177 9275.966850 9702.851025 10116.558525 10573.917204 11079.303385 11541.401703 11880.164236 12077.463391 12115.709699 12115.709699 12115.709699 -0.000000 -0.000000 -0.000000 -0.000000 -0.000000 0.000000 0.000000 -0.000000 -0.000000 -0.000000 -0.000000 -0.000000 -0.000000 -0.000000 -0.000000 -0.000000 -0.000000 -0.000000 -0.000000 -0.000000 -0.000001 -0.000001 -0.000002 -0.000004 -0.000006 -0.000010 -0.000017 -0.000028 -0.000045 -0.000073 -0.000116 -0.000182 -0.000283 -0.000437 -0.000668 -0.001009 -0.001508 -0.002231 -0.003262 -0.004716 -0.006736 -0.009500 -0.013222 -0.018141 -0.024506 -0.032543 -0.042386 -0.053977 -0.066900 -0.080131 -0.091666 -0.097997 -0.093363 -0.068733 -0.010422 0.101738 0.296791 0.615716 1.115302 1.872941 2.992462 4.611066 6.907379 10.110514 14.509935 20.465777 28.419211 38.902450 52.548277 70.099433 92.418941 120.503208 155.499812 198.730251 251.712393 316.165361 393.958829 486.941172 596.560880 723.221970 865.458819 1019.372032 1179.372443 1341.843632 1512.600916 1713.852836 1977.565038 2318.784560 2724.455308 3186.458069 3709.161651 4290.938441 4903.289084 5507.917639 6097.018034 6680.116381 7256.702656 7813.693657 8337.529291 8823.285177 9275.966850 9702.851025 10116.558525 10573.917204 11079.303385 11541.401703 11880.164236 12077.463391 12115.709699 12115.709699 12115.709699 -0.000000 -0.000000 -0.000000 -0.000000 -0.000000 0.000000 0.000000 -0.000000 -0.000000 -0.000000 -0.000000 -0.000000 -0.000000 -0.000000 -0.000000 -0.000000 -0.000000 -0.000000 -0.000000 -0.000000 -0.000001 -0.000001 -0.000002 -0.000004 -0.000006 -0.000010 -0.000017 -0.000028 -0.000045 -0.000073 -0.000116 -0.000182 -0.000283 -0.000437 -0.000668 -0.001009 -0.001508 -0.002231 -0.003262 -0.004716 -0.006736 -0.009500 -0.013222 -0.018141 -0.024506 -0.032543 -0.042386 -0.053977 -0.066900 -0.080131 -0.091666 -0.097997 -0.093363 -0.068733 -0.010422 0.101738 0.296791 0.615716 1.115302 1.872941 2.992462 4.611066 6.907379 10.110514 14.509935 20.465777 28.419211 38.902450 52.548277 70.099433 92.418941 120.503208 155.499812 198.730251 251.712393 316.165361 393.958829 486.941172 596.560880 723.221970 865.458819 1019.372032 1179.372443 1341.843632 1512.600916 1713.852836 1977.565038 2318.784560 2724.455308 3186.458069 3709.161651 4290.938441 4903.289084 5507.917639 6097.018034 6680.116381 7256.702656 7813.693657 8337.529291 8823.285177 9275.966850 9702.851025 10116.558525 10573.917204 11079.303385 11541.401703 11880.164236 12077.463391 12115.709699 12115.709699 12115.709699 -1341.843913 -1577.019162 -2034.573950 -2325.779463 -714.608800 197.407735 -944.274551 -1209.065899 843.516111 1169.202220 -118.497927 -1404.931426 -1342.201434 1180.427880 912.821466 -1275.338507 -1710.954265 1341.116447 1096.711909 -1597.896143 -438.863722 2261.305639 1244.076909 -183.850744 -1755.706111 -1012.775571 2062.860340 1445.268912 -355.203623 -1887.598626 367.826650 1346.715176 2775.014021 5242.234107 2454.854769 5074.629403 8142.229027 2932.282832 7308.736155 8247.912369 6361.083551 10365.550209 10237.200413 10388.693484 13489.965588 12204.276660 13130.664095 16130.538538 16314.711255 13865.405387 10687.253084 15621.696608 16454.018921 16244.753613 16244.753613 16244.753613 66.728491 108.644446 -379.036666 7093.316224 9298.821991 11963.872214 11207.012810 10908.462335 13008.220280 11840.710584 15532.033086 11171.701126 11643.605514 12810.234489 15366.223406 24409.411086 17046.115525 21143.261245 14489.186239 27737.743424 15215.677213 19009.843111 18133.560353 17425.406590 15466.972771 14991.445252 20855.673803 25769.832306 18877.945769 19094.265160 21075.060384 19223.140012 11913.034050 14522.433444 18646.812533 13897.403085 22972.419583 11797.163810 18091.792945 19405.887869 16776.747187 19423.443051 13841.070192 16203.821039 18391.564410 16914.350658 16119.215984 15353.440284 11219.058510 9486.554449 17831.201250 21941.628177 17934.332218 16814.145106 16814.145106 16814.145106 147.698888 73.886548 3079.407365 418.569073 8119.743378 4860.153318 7328.585389 9889.521682 11610.586035 9000.041581 11082.050759 9182.284587 11059.211374 11655.344170 10751.067836 11682.466760 9373.775166 10693.689586 10530.665138 13157.606397 13433.271183 15739.406883 22225.878473 18191.212123 18848.474976 17961.947581 15770.870960 18049.123805 15801.677321 16496.322996 14246.481994 13745.927986 19050.602591 17927.390217 20407.011935 13432.868208 13714.487646 11995.741816 19458.148595 10850.870323 14493.108803 16273.106316 15027.766180 16376.777321 11877.250673 18214.294196 18571.126950 17252.709445 12232.658150 19876.694535 9706.364812 24212.780782 18716.637401 17256.194906 17256.194906 17256.194906 -305.369242 -867.126354 3764.924852 4315.081408 6091.533511 2545.801204 8175.315170 5057.439564 7281.662726 7974.184167 8874.894696 8636.498088 9827.621760 7581.436268 10334.367904 7919.844211 8864.385026 11307.541492 9944.041155 11808.012603 10330.916147 7205.372857 14173.184368 13915.117186 15837.434302 14794.387837 13158.793993 14632.275236 17761.870579 12627.928812 13354.946033 14553.026013 18313.678459 15867.519716 15727.710694 16619.752938 14335.425384 15808.982572 14821.760734 14173.546206 12583.354298 14709.244681 19199.094781 18702.695729 17582.627270 20323.386642 19583.201915 16390.528298 16392.369222 17136.689226 17862.494707 20726.527764 18564.381076 17483.130374 17483.130374 17483.130374 1955.511763 1869.598026 4884.592933 2006.335621 1846.628333 5909.751659 4755.460354 5330.429244 5944.156761 6031.733662 6532.636857 6106.678725 7469.028217 8386.700548 8572.639589 7671.457303 6358.112291 6306.033870 8407.278927 7770.456496 9269.126637 8191.675870 11611.894655 9775.042579 13855.648147 10293.608496 13025.259548 14277.990949 14644