<VTKFile type="PolyData">
<PolyData>
<Piece NumberOfPoints="8632" NumberOfVerts="8632" NumberOfLines="0" NumberOfStrips="0" NumberOfPolys="0">
<PointData>
<DataArray type="Float64" Name="Pressure" format="ascii">
 -0.615214 -0.615214 -0.615214 -0.628502 -0.778282 -1.169810 -1.626040 -2.167153 -2.802584 -3.546252 -4.417846 -5.441504 -6.645101 -8.060114 -9.721774 -11.669332 -13.946371 -16.601116 -19.686732 -23.261596 -27.389544 -32.140064 -37.588442 -43.815854 -50.909369 -58.961890 -68.071981 -78.343607 -89.885745 -102.811880 -117.239365 -133.288648 -151.082365 -170.744307 -192.398279 -216.166881 -242.170246 -270.524793 -301.342070 -334.727755 -370.780913 -409.593577 -451.250726 -495.830649 -543.405629 -594.042680 -647.803844 -704.745048 -764.911645 -828.326970 -894.966356 -964.700067 -1037.167896 -1111.508440 -1185.812361 -1256.584561 -1319.003037 -1366.473755 -1387.608671 -1362.960534 -1264.275130 -1089.825564 -910.927905 -777.407347 -643.770260 -476.960929 -344.054568 -297.184371 -295.714137 -270.964730 -188.629992 -100.898034 -82.192513 -110.697498 -110.703351 -38.777433 62.686505 128.078992 157.264219 191.915369 311.396680 570.406424 899.849680 1219.433118 1570.954788 2017.679053 2573.262194 3226.103591 3924.379079 4608.032134 5242.953048 5817.455408 6343.642993 6864.401863 7397.308797 7922.401367 8433.110274 8931.051878 9403.720786 9851.485198 10286.187198 10689.204871 11009.705506 11218.085590 11331.428739 11382.503925 11408.035981 11429.344930 11435.092457 11435.092457 11435.092457 -0.615214 -0.615214 -0.615214 -0.628502 -0.778282 -1.169810 -1.626040 -2.167153 -2.802584 -3.546252 -4.417846 -5.441504 -6.645101 -8.060114 -9.721774 -11.669332 -13.946371 -16.601116 -19.686732 -23.261596 -27.389544 -32.140064 -37.588442 -43.815854 -50.909369 -58.961890 -68.071981 -78.343607 -89.885745 -102.811880 -117.239365 -133.288648 -151.082365 -170.744307 -192.398279 -216.166881 -242.170246 -270.524793 -301.342070 -334.727755 -370.780913 -409.593577 -451.250726 -495.830649 -543.405629 -594.042680 -647.803844 -704.745048 -764.911645 -828.326970 -894.966356 -964.700067 -1037.167896 -1111.508440 -1185.812361 -1256.584561 -1319.003037 -1366.473755 -1387.608671 -1362.960534 -1264.275130 -1089.825564 -910.927905 -777.407347 -643.770260 -476.960929 -344.054568 -297.184371 -295.714137 -270.964730 -188.629992 -100.898034 -82.192513 -110.697498 -110.703351 -38.777433 62.686505 128.078992 157.264219 191.915369 311.396680 570.406424 899.849680 1219.433118 1570.954788 2017.679053 2573.262194 3226.103591 3924.379079 4608.032134 5242.953048 5817.455408 6343.642993 6864.401863 7397.308797 7922.401367 8433.110274 8931.051878 9403.720786 9851.485198 10286.187198 10689.204871 11009.705506 11218.085590 11331.428739 11382.503925 11408.035981 11429.344930 11435.092457 11435.092457 11435.092457 -0.615214 -0.615214 -0.615214 -0.628502 -0.778282 -1.169810 -1.626040 -2.167153 -2.802584 -3.546252 -4.417846 -5.441504 -6.645101 -8.060114 -9.721774 -11.669332 -13.946371 -16.601116 -19.686732 -23.261596 -27.389544 -32.140064 -37.588442 -43.815854 -50.909369 -58.961890 -68.071981 -78.343607 -89.885745 -102.811880 -117.239365 -133.288648 -151.082365 -170.744307 -192.398279 -216.166881 -242.170246 -270.524793 -301.342070 -334.727755 -370.780913 -409.593577 -451.250726 -495.830649 -543.405629 -594.042680 -647.803844 -704.745048 -764.911645 -828.326970 -894.966356 -964.700067 -1037.167896 -1111.508440 -1185.812361 -1256.584561 -1319.003037 -1366.473755 -1387.608671 -1362.960534 -1264.275130 -1089.825564 -910.927905 -777.407347 -643.770260 -476.960929 -344.054568 -297.184371 -295.714137 -270.964730 -188.629992 -100.898034 -82.192513 -110.697498 -110.703351 -38.777433 62.686505 128.078992 157.264219 191.915369 311.396680 570.406424 899.849680 1219.433118 1570.954788 2017.679053 2573.262194 3226.103591 3924.379079 4608.032134 5242.953048 5817.455408 6343.642993 6864.401863 7397.308797 7922.401367 8433.110274 8931.051878 9403.720786 9851.485198 10286.187198 10689.204871 11009.705506 11218.085590 11331.428739 11382.503925 11408.035981 11429.344930 11435.092457 11435.092457 11435.092457 -0.611239 -0.611239 -0.611239 -0.624245 -0.772744 -1.161344 -1.618140 -2.161970 -2.799359 -3.543763 -4.415437 -5.438868 -6.642087 -8.056629 -9.717744 -11.664691 -13.941051 -16.595046 -19.679837 -23.253799 -27.380764 -32.130218 -37.577448 -43.803625 -50.895824 -58.946945 -68.055560 -78.325637 -89.866159 -102.790622 -117.216389 -133.263920 -151.055864 -170.716030 -192.368239 -216.135109 -242.136789 -270.489717 -301.305454 -334.689689 -370.741494 -409.552907 -451.208909 -495.787803 -543.361916 -593.998400 -647.759668 -704.702608 -764.874982 -828.306116 -894.986154 -964.821583 -1037.537550 -1112.454604 -1187.835090 -1260.145795 -1324.573662 -1375.847286 -1404.313496 -1390.806764 -1288.467225 -1053.702668 -889.673645 -778.452895 -657.501261 -455.659565 -308.302691 -280.001648 -303.068872 -291.355823 -191.610331 -72.310114 -63.662170 -118.504198 -134.156216 -43.271772 95.160773 181.979362 211.946906 194.681365 233.502723 481.994424 857.003529 1204.104265 1584.689082 2048.511066 2599.272512 3269.244679 3988.795495 4690.205456 5333.688579 5903.305975 6400.556416 6902.824485 7431.025223 7949.672915 8459.449634 8969.422151 9446.716291 9891.149251 10330.927718 10752.486880 11087.537078 11290.320254 11390.382345 11418.847946 11430.747334 11456.993261 11466.663104 11466.663104 11466.663104 -0.568435 -0.568435 -0.568435 -0.578646 -0.705622 -1.048262 -1.516113 -2.107094 -2.766920 -3.519031 -4.391453 -5.412576 -6.611989 -8.021811 -9.677488 -11.618326 -13.887897 -16.534394 -19.610943 -23.175887 -27.293029 -32.031834 -37.467574 -43.681420 -50.760450 -58.797590 -67.891443 -78.146030 -89.670405 -102.578149 -116.986730 -133.016735 -150.790957 -170.433360 -192.067939 -215.817485 -241.802326 -270.139062 -300.939398 -334.309136 -370.347419 -409.146322 -450.790859 -495.359450 -542.924852 -593.555543 -647.317543 -704.277044 -764.505198 -828.089558 -895.164669 -965.993749 -1041.173072 -1122.002706 -1211.128932 -1302.008235 -1386.100750 -1477.704713 -1589.023063 -1714.373890 -1575.873188 -626.563200 -372.394382 -798.642175 -950.082488 -212.568465 266.942655 -70.422778 -400.514231 -668.775204 -282.046340 426.212843 206.002494 -224.807895 -531.904051 -172.502851 637.020408 1096.644346 1336.092810 554.878523 -853.179325 -776.505920 327.744840 1053.251712 1882.710545 2633.462986 3011.391302 3881.657019 4851.573522 5690.574254 6434.268781 6919.171578 6972.969552 7211.926365 7745.348386 8153.993127 8665.748202 9375.883232 9942.078749 10330.366415 10831.699601 11529.528435 12103.619297 12267.429782 12218.762447 11898.076765 11659.522891 11757.759291 11807.330803 11807.330803 11807.330803 -0.508643 -0.508643 -0.508643 -0.516505 -0.607254 -0.848941 -1.294120 -2.013762 -2.722198 -3.488260 -4.363255 -5.382384 -6.577714 -7.982268 -9.631807 -11.565721 -13.827588 -16.465570 -19.532757 -23.087455 -27.193436 -31.920138 -37.342819 -43.542644 -50.606704 -58.627944 -67.705009 -77.941979 -89.447984 -102.336705 -116.725731 -132.735792 -150.489841 -170.112026 -191.726534 -215.456361 -241.422032 -269.740340 -300.523155 -333.876409 -369.899336 -408.684066 -450.315683 -494.872816 -542.428922 -593.054488 -646.820931 -703.808273 -764.122458 -827.937886 -895.605834 -967.933630 -1046.907358 -1137.610163 -1253.760863 -1363.809335 -1460.714747 -1597.133067 -1808.315211 -2177.039471 -2411.063332 -878.613530 96.996905 -845.484963 -1515.244543 -51.019631 1068.068899 239.348554 -560.804144 -1355.547870 -537.515690 1214.729009 658.062379 -405.128558 -1291.373524 -403.314120 1664.400204 3301.982812 5404.644637 3165.743973 -4487.327642 -3181.691600 622.699088 106.226113 3403.026247 5136.607883 3183.245273 6137.186204 6323.409162 7436.493228 8135.845784 9029.623974 6855.807307 7316.258256 8087.779768 8100.200517 8337.019103 9919.944476 10497.856491 10894.365003 11474.940583 12536.890304 14046.026817 13681.490670 13744.890854 12472.018531 11704.903830 12149.536461 12274.057267 12274.057267 12274.057267 -0.500379 -0.500379 -0.500379 -0.507904 -0.593987 -0.817701 -0.444530 -0.444530 -0.444530 -0.449409 -0.504905 -0.626344 -0.360733 -0.360733 -0.360733 -0.362894 -0.385808 -0.424672 -0.288173 -0.288173 -0.288173 -0.288986 -0.297018 -0.310269 -0.228005 -0.228005 -0.228005 -0.228237 -0.230462 -0.234473 -0.179198 -0.179198 -0.179198 -0.179214 -0.179337 -0.180041 -0.140111 -0.140111 -0.140111 -0.140057 -0.139509 -0.139108 -0.109064 -0.109064 -0.109064 -0.108996 -0.108307 -0.107614 -0.084551 -0.084551 -0.084551 -0.084486 -0.083841 -0.083145 -0.065291 -0.065291 -0.065291 -0.065236 -0.064686 -0.064078 -0.050226 -0.050226 -0.050226 -0.050181 -0.049731 -0.049228 -0.038490 -0.038490 -0.038490 -0.038454 -0.038094 -0.037689 -0.029386 -0.029386 -0.029386 -0.029357 -0.029072 -0.028751 -0.022350 -0.022350 -0.022350 -0.022328 -0.022104 -0.021852 -0.016935 -0.016935 -0.016935 -0.016918 -0.016743 -0.016546 -0.012784 -0.012784 -0.012784 -0.012770 -0.012634 -0.012481 -0.009613 -0.009613 -0.009613 -0.009603 -0.009498 -0.009380 -0.007202 -0.007202 -0.007202 -0.007194 -0.007113 -0.007022 -0.005375 -0.005375 -0.005375 -0.005369 -0.005307 -0.005238 -0.003997 -0.003997 -0.003997 -0.003992 -0.003945 -0.003892 -0.002961 -0.002961 -0.002961 -0.002957 -0.002921 -0.002881 -0.002185 -0.002185 -0.002185 -0.002182 -0.002155 -0.002124 -0.001606 -0.001606 -0.001606 -0.001604 -0.001583 -0.001560 -0.001176 -0.001176 -0.001176 -0.001175 -0.001159 -0.001142 -0.000858 -0.000858 -0.000858 -0.000857 -0.000845 -0.000833 -0.000624 -0.000624 -0.000624 -0.000623 -0.000614 -0.000605 -0.000452 -0.000452 -0.000452 -0.000451 -0.000445 -0.000437 -0.000326 -0.000326 -0.000326 -0.000325 -0.000321 -0.000315 -0.000234 -0.000234 -0.000234 -0.000234 -0.000230 -0.000226 -0.000168 -0.000168 -0.000168 -0.000167 -0.000165 -0.000162 -0.000120 -0.000120 -0.000120 -0.000119 -0.000117 -0.000115 -0.000085 -0.000085 -0.000085 -0.000085 -0.000083 -0.000082 -0.000060 -0.000060 -0.000060 -0.000060 -0.000059 -0.000058 -0.000042 -0.000042 -0.000042 -0.000042 -0.000042 -0.000041 -0.000030 -0.000030 -0.000030 -0.000030 -0.000029 -0.000029 -0.000021 -0.000021 -0.000021 -0.000021 -0.000020 -0.000020 -0.000015 -0.000015 -0.000015 -0.000015 -0.000014 -0.000014 -0.000010 -0.000010 -0.000010 -0.000010 -0.000010 -0.000010 -0.000007 -0.000007 -0.000007 -0.000007 -0.000007 -0.000007 -0.000005 -0.000005 -0.000005 -0.000005 -0.000005 -0.000005 -0.000003 -0.000003 -0.000003 -0.000003 -0.000003 -0.000003 -0.000002 -0.000002 -0.000002 -0.000002 -0.000002 -0.000002 -0.000002 -0.000002 -0.000002 -0.000002 -0.000002 -0.000001 -0.000001 -0.000001 -0.000001 -0.000001 -0.000001 -0.000001 -0.000001 -0.000001 -0.000001 -0.000001 -0.000001 -0.000001 -0.000000 -0.000000 -0.000000 -0.000000 -0.000000 -0.000000 -0.000000 -0.000000 -0.000000 -0.000000 -0.000000 -0.000000 -0.000000 -0.000000 -0.000000 -0.000000 -0.000000 -0.000000 -0.000000 -0.000000 -0.000000 -0.000000 -0.000000 -0.000000 -0.000000 -0.000000 -0.000000 -0.000000 -0.000000 -0.000000 -0.000000 -0.000000 -0.000000 -0.000000 -0.000000 -0.000000 -0.000000 -0.000000 -0.000000 -0.000000 -0.000000 -0.000000 -0.000000 -0.000000 -0.000000 -0.000000 -0.000000 -0.000000 -0.000000 -0.000000 -0.000000 -0.000000 -0.000000 -0.000000 -0.000000 -0.000000 -0.000000 -0.000000 -0.000000 -0.000000 -0.000000 -0.000000 -0.000000 -0.000000 -0.000000 -0.000000 -0.000000 -0.000000 -0.000000 -0.000000 -0.000000 -0.000000 -0.000000 -0.000000 -0.000000 -0.000000 -0.000000 -0.000000 -0.000000 -0.000000 -0.000000 -0.000000 -0.000000 -0.000000 -0.000000 -0.000000 -0.000000 -0.000000 -0.000000 -0.000000 -0.000000 -0.000000 -0.000000 -0.000000 -0.000000 -0.000000 -0.000000 -0.000000 -0.000000 -0.000000 -0.000000 -0.000000 -0.000000 -0.000000 -0.000000 -0.000000 -0.000000 -0.000000 -0.000000 -0.000000 -0.000000 -0.000000 -0.000000 -0.000000 -0.000000 -0.000000 -0.000000 -0.000000 -0.000000 -0.000000 -0.000000 -0.000000 -0.000000 -0.000000 -0.000000 -0.000000 -0.000000 -0.000000 -0.000000 -0.000000 -0.000000 -0.000000 -0.000000 -0.000000 -0.000000 -0.000000 -0.000000 -0.000000 -0.000000 -0.000000 -0.000000 -0.000000 -0.000000 -0.000000 -0.000000 -0.000000 -0.000000 -0.000000 -0.000000 -0.000000 -0.000000 -0.000000 -0.000000 -0.000000 -0.000000 -0.000000 -0.000000 -0.000000 -0.000000 -0.000000 -0.000000 -0.000000 -0.000000 -0.000000 -0.000000 -0.000000 -0.000000 -0.000000 -0.000000 -0.000000 -0.000000 -0.000000 -0.000000 -0.000000 -0.000000 -0.000000 -0.000000 -0.000000 -0.000000 -0.000000 -0.000000 -0.000000 -0.000000 -0.000000 -0.000000 -0.000000 -0.000000 -0.000000 -0.000000 -0.000000 -0.000000 -0.000000 -0.000000 -0.000000 -0.000000 -0.000000 -0.000000 -0.000000 -0.000000 -0.000000 -0.000000 -0.000000 -0.000000 -0.000000 -0.000000 -0.000000 -0.000000 -0.000000 -0.000000 -0.000000 -0.000000 -0.000000 -0.000000 -0.000000 -0.000000 -0.000000 -0.000000 -0.000000 -0.000000 -0.000000 -0.000000 -0.000000 -0.000000 -0.000000 -0.000000 -0.000000 -0.000000 -0.000000 -0.000000 -0.000000 -0.000000 -0.000000 -0.000000 -0.000000 -0.000000 -0.000000 -0.000000 -0.000000 -0.000000 -0.000000 -0.000000 -0.000000 -0.000000 -0.000000 -0.000000 -0.000000 -0.000000 -0.000000 -0.000000 -0.000000 -0.000000 -0.000000 -0.000000 -0.000000 -0.000000 -0.000000 -0.000000 -0.000000 -0.000000 -0.000000 -0.000000 -0.000000 -0.000000 -0.000000 -0.000000 -0.000000 -0.000000 -0.000000 -0.000000 -0.000000 -0.000000 -0.000000 -0.000000 -0.000000 -0.000000 -0.000000 -0.000000 -0.000000 -0.000000 -0.000000 -0.000000 -0.000000 -0.000000 -0.000000 -0.000000 -0.000000 -0.000000 -0.000000 -0.000000 -0.000000 -0.000000 -0.000000 -0.000000 -0.000000 -0.000000 -0.000000 -0.000000 -0.000000 -0.000000 -0.000000 -0.000000 -0.000000 -0.000000 -0.000000 -0.000000 -0.000000 -0.000000 -0.000000 -0.000000 -0.000000 -0.000000 -0.000000 -0.000000 -0.000000 -0.000000 -0.000000 -0.000000 -0.000000 -0.000000 -0.000000 -0.000000 -0.000000 -0.000000 -0.000000 -0.000000 -0.000000 -0.000000 -0.000000 -0.000000 -0.000000 -0.000000 -0.000000 -0.000000 -0.000000 -0.000000 -0.000000 -0.000000 -0.000000 -0.000000 -0.000000 -0.000000 -0.000000 -0.000000 -0.000000 -0.000000 -0.000000 -0.000000 -0.000000 -0.000000 -0.000000 -0.000000 -0.000000 -0.000000 -0.000000 -0.000000 -0.000000 -0.000000 -0.000000 -0.000000 -0.000000 -0.000000 -0.000000 -0.000000 -0.000000 -0.000000 -0.000000 -0.000000 -0.000000 -0.000000 -0.000000 -0.000000 -0.000000 -0.000000 -0.000000 -0.000000 -0.000000 -0.000000 -0.000000 -0.000000 -0.000000 -0.000000 -0.000000 -0.000000 -0.000000 -0.000000 -0.000000 -0.000000 -0.000000 -0.000000 -0.000000 -0.000000 -0.000000 -0.000000 -0.000000 -0.000000 -0.000000 -0.000000 -0.000000 -0.000000 -0.000000 -0.000000 -0.000000 -0.000000 -0.000000 -0.000000 -0.000000 -0.000000 -0.000000 -0.000000 -0.000000 -0.000000 -0.000000 -0.000000 -0.000000 -0.000000 -0.000000 -0.000000 -0.000000 -0.000000 -0.000000 -0.000000 -0.000000 -0.000000 -0.000000 -0.000000 -0.000000 -0.000000 -0.000000 -0.000000 -0.000000 -0.000000 -0.000000 -0.000000 -0.000000 -0.000000 -0.000000 -0.000000 -0.000000 -0.000000 -0.000000 -0.000000 -0.000000 -0.000000 -0.000000 -0.000000 -0.000000 -0.000000 -0.000000 -0.000000 -0.000000 -0.000000 -0.000000 -0.000000 -0.000000 -0.000000 -0.000000 -0.000000 -0.000000 -0.000000 -0.000000 -0.000000 -0.000000 -0.000000 -0.000000 -0.000000 -0.000000 -0.000000 -0.000000 -0.000000 -0.000000 -0.000000 -0.000000 -0.000000 -0.000000 -0.000000 -0.000000 -0.000000 -0.000000 -0.000000 -0.000000 -0.000000 -0.000000 -0.000000 -0.000000 -0.000000 -0.000000 -0.000000 -0.000000 -0.000000 -0.000000 -0.000000 -0.000000 -0.000000 -0.000000 -0.000000 -0.000000 -0.000000 -0.000000 -0.000000 -0.000000 -0.000000 -0.000000 -0.000000 -0.000000 -0.000000 -0.000000 -0.000000 -0.000000 -0.000000 -0.000000 -0.000000 -0.000000 -0.000000 -0.000000 -0.000000 -0.000000 -0.000000 -0.000000 -0.000000 -0.000000 -0.000000 -0.000000 -0.000000 -0.000000 -0.000000 -0.000000 -0.000000 -0.000000 -0.000000 -0.000000 -0.000000 -0.000000 -0.000000 -0.000000 -0.000000 -0.000000 -0.000000 -0.000000 -0.000000 -0.000000 -0.000000 -0.000000 -0.000000 -0.000000 -0.000000 -0.000000 -0.000000 -0.000000 -0.000000 -0.000000 -0.000000 -0.000000 -0.000000 -0.000000 -0.000000 -0.000000 -0.000000 -0.000000 -0.000000 -0.000000 -0.000000 -0.000000 -0.000000 -0.000000 -0.000000 -0.000000 -0.000000 -0.000000 -0.000000 -0.000000 -0.000000 -0.000000 -0.000000 -0.000000 -0.000000 -0.000000 -0.000000 -0.000000 -0.000000 -0.000000 -0.000000 -0.000000 -0.000000 -0.000000 -0.000000 -0.000000 -0.000000 -0.000000 -0.000000 -0.000000 -0.000000 -0.000000 -0.000000 -0.000000 -0.000000 -0.000000 -0.000000 -0.000000 -0.000000 -0.000000 -0.000000 -0.000000 -0.000000 -0.000000 -0.000000 -0.000000 -0.000000 -0.000000 -0.000000 -0.000000 -0.000000 -0.000000 -0.000000 -0.000000 -0.000000 -0.000000 -0.000000 -0.000000 -0.000000 -0.000000 -0.000000 -0.000000 -0.000000 -0.000000 -0.000000 -0.000000 -0.000000 -0.000000 -0.000000 -0.000000 -0.000000 -0.000000 -0.000000 -0.000000 -0.000000 -0.000000 -0.000000 -0.000000 -0.000000 -0.000000 -0.000000 -0.000000 -0.000000 -0.000000 -0.000000 -0.000000 -0.000000 -0.000000 -0.000000 -0.000000 -0.000000 -0.000000 -0.000000 -0.000000 -0.000000 -0.000000 -0.000000 -0.000000 -0.000000 -0.000000 -0.000000 -0.000000 -0.000000 -0.000000 -0.000000 -0.000000 -0.000000 -0.000000 -0.000000 -0.000000 -0.000000 -0.000000 -0.000000 -0.000000 -0.000000 -0.000000 -0.000000 -0.000000 -0.000000 -0.000000 -0.000000 -0.000000 -0.000000 -0.000000 -0.000000 -0.000000 -0.000000 -0.000000 -0.000000 -0.000000 -0.000000 -0.000000 -0.000000 -0.000000 -0.000000 -0.000000 -0.000000 -0.000000 -0.000000 -0.000000 -0.000000 -0.000000 -0.000000 -0.000000 -0.000000 -0.000000 -0.000000 -0.000000 -0.000000 -0.000000 -0.000000 -0.000000 -0.000000 -0.000000 -0.000000 -0.000000 -0.000000 -0.000000 -0.000000 -0.000000 -0.000000 -0.000000 -0.000000 -0.000000 -0.000000 -0.000000 -0.000000 -0.000000 -0.000000 -0.000000 -0.000000 -0.000000 -0.000000 -0.000000 -0.000000 -0.000000 -0.000000 -0.000000 -0.000000 -0.000000 -0.000000 -0.000000 -0.000000 -0.000000 -0.000000 -0.000000 -0.000000 -0.000000 -0.000000 -0.000000 -0.000000 -0.000000 -0.000000 -0.000000 -0.000000 -0.000000 -0.000000 -0.000000 -0.000000 -0.000000 -0.000000 -0.000000 -0.000000 -0.000000 -0.000000 -0.000000 -0.000000 -0.000000 -0.000000 -0.000000 -0.000000 -0.000000 -0.000000 -0.000000 -0.000000 -0.000000 -0.000000 -0.000000 -0.000000 -0.000000 -0.000000 -0.000000 -0.000000 -0.000000 -0.000000 -0.000000 -0.000000 -0.000000 -0.000000 -0.000000 -0.000000 -0.000000 -0.000000 -0.000000 -0.000000 -0.000000 -0.000000 -0.000000 -0.000000 -0.000000 -0.000000 -0.000000 -0.000000 -0.000000 -0.000000 -0.000000 -0.000000 -0.000000 -0.000000 -0.000000 -0.000000 -0.000000 -0.000000 -0.000000 -0.000000 -0.000000 -0.000000 -0.000000 -0.000000 -0.000000 -0.000000 -0.000000 -0.000000 -0.000000 -0.000000 -0.000000 -0.000000 -0.000000 -0.000000 -0.000000 -0.000000 -0.000000 -0.000000 -0.000000 -0.000000 -0.000000 -0.000000 -0.000000 -0.000000 -0.000000 -0.000000 -0.000000 -0.000000 -0.000000 -0.000000 -0.000000 -0.000000 -0.000000 -0.000000 -0.000000 -0.000000 -0.000000 -0.000000 -0.000000 -0.000000 -0.000000 -0.000000 -0.000000 -0.000000 -0.000000 -0.000000 -0.000000 -0.000000 -0.000000 -0.000000 -0.000000 -0.000000 -0.000000 -0.000000 -0.000000 -0.000001 -0.000001 -0.000001 -0.000001 -0.000001 -0.000001 -0.000001 -0.000001 -0.000001 -0.000001 -0.000001 -0.000001 -0.000001 -0.000001 -0.000001 -0.000001 -0.000001 -0.000001 -0.000001 -0.000001 -0.000001 -0.000001 -0.000001 -0.000001 -0.000002 -0.000002 -0.000002 -0.000002 -0.000002 -0.000002 -0.000003 -0.000003 -0.000003 -0.000003 -0.000003 -0.000003 -0.000004 -0.000004 -0.000004 -0.000004 -0.000004 -0.000004 -0.000005 -0.000005 -0.000005 -0.000005 -0.000005 -0.000005 -0.000006 -0.000006 -0.000006 -0.000006 -0.000006 -0.000007 -0.000007 -0.000007 -0.000007 -0.000007 -0.000008 -0.000011 -0.000009 -0.000009 -0.000009 -0.000009 -0.000011 -0.000015 -0.000021 -0.000027 -0.000028 -0.000024 -0.000010 0.000020 0.000074 0.000165 0.000314 0.000546 0.000901 0.001434 0.002220 0.003366 0.005014 0.007360 0.010668 0.015291 0.021699 0.030516 0.042558 0.058896 0.080922 0.110444 0.149813 0.202112 0.271494 0.363873 0.488552 0.662336 0.919998 1.339857 2.100857 3.590578 6.557815 12.250827 22.717434 42.991895 90.230553 214.521258 671.293310 463.007170 1268.712257 7077.134038 -927.732281 -6156.441686 -2848.892877 -1032.517608 282.360163 5931.807526 11256.957999 -1155.964346 5551.011437 13481.696990 -6791.571530 3438.741368 7618.247159 5306.305818 -1365.839356 848.505436 4334.211361 3748.042585 1092.320817 3981.408198 49.366218 4909.103296 -4140.901937 -762.038137 3882.246896 3091.363513 11334.927560 7415.951602 4899.695059 10589.802163 13962.715607 14226.894360 9927.654268 12034.254085 11618.356807 10426.401493 10909.357491 11722.204631 11414.531360 11007.212444 12285.877809 12844.127274 13177.759454 13268.298292 12588.597765 16711.681031 14572.755058 17126.409182 17670.807610 18964.545243 18142.785137 19788.113598 18822.188862 18903.030255 19409.231321 18203.497554 18348.957749 20775.507160 21207.833206 21207.833206 21207.833206 -0.000010 -0.000010 -0.000010 -0.000011 -0.000013 -0.000018 -0.000023 -0.000027 -0.000027 -0.000022 -0.000007 0.000024 0.000079 0.000174 0.000326 0.000564 0.000927 0.001471 0.002272 0.003439 0.005115 0.007500 0.010859 0.015551 0.022050 0.030986 0.043184 0.059726 0.082016 0.111881 0.151697 0.204594 0.274808 0.368444 0.495239 0.672983 0.938464 1.373390 2.160262 3.685795 6.691028 12.434077 22.987301 42.678166 82.947073 170.387392 320.223429 473.226375 858.936902 1498.703191 844.592947 -578.011200 -802.049390 -83.527345 1017.027401 2593.046784 4387.936610 2925.211678 4013.772799 7272.783407 2188.335743 2702.010962 4926.435340 4791.238186 3406.415288 4155.050172 5877.320023 5786.317828 4259.766522 4781.017924 4563.231544 4721.709275 4139.343403 5607.994756 6986.259364 7689.224460 9108.262529 8459.460910 8362.080376 10049.250628 11896.238134 12211.920280 11497.241306 12031.782897 11753.257314 11441.696767 11874.782633 12472.857290 12689.822031 13104.314924 13933.350733 14263.161988 14662.394225 15116.696068 14917.948909 16764.732869 15822.647773 17255.836689 18090.697911 19107.505642 19303.379897 19433.948364 18597.115304 20126.375439 22547.944614 22443.064094 20680.335864 20849.525857 20938.265256 20938.265256 20938.265256 -0.000011 -0.000011 -0.000011 -0.000011 -0.000014 -0.000019 -0.000023 -0.000027 -0.000027 -0.000021 -0.000005 0.000028 0.000086 0.000183 0.000340 0.000584 0.000957 0.001513 0.002333 0.003523 0.005233 0.007662 0.011081 0.015852 0.022456 0.031530 0.043909 0.060685 0.083280 0.113541 0.153876 0.207469 0.278665 0.373811 0.503212 0.685966 0.961621 1.416831 2.240628 3.824095 6.909375 12.776500 23.522108 42.757240 77.087995 136.676256 228.228119 347.768669 501.037163 665.992617 665.299023 498.754857 444.934689 648.360020 1105.236992 1734.733092 2328.280587 2635.208168 2918.104041 3469.588018 3678.376032 3894.597941 4344.230423 4743.871004 4926.029007 5157.138252 5496.125796 5724.498228 5883.332252 6141.112218 6414.635306 6756.281569 7195.417866 7828.654296 8399.331783 8883.582757 9336.815114 9658.447007 10085.350907 10724.714998 11376.766178 11854.055038 12191.003376 12486.845648 12692.061827 12919.038649 13259.493252 13653.552090 14035.710627 14469.280579 14983.506220 15478.261113 15936.802109 16419.517038 16969.418361 17606.910617 18036.360641 18517.727853 18912.007586 19242.829400 19477.538137 19651.765909 19796.981855 20354.339531 20767.436969 20905.663836 20788.263089 20818.898531 20830.832247 20830.832247 20830.832247 -0.000011 -0.000011 -0.000011 -0.000012 -0.000014 -0.000019 -0.000024 -0.000027 -0.000027 -0.000021 -0.000004 0.000028 0.000087 0.000185 0.000342 0.000588 0.000962 0.001521 0.002344 0.003539 0.005254 0.007691 0.011121 0.015906 0.022529 0.031628 0.044039 0.060858 0.083508 0.113840 0.154269 0.207988 0.279364 0.374788 0.504677 0.688382 0.965996 1.425171 2.256357 3.851936 6.955142 12.850813 23.640202 42.820097 76.281215 132.251063 216.667893 327.857747 459.738285 584.613217 632.874758 591.914225 584.613018 746.998670 1121.326057 1646.854687 2179.977607 2582.751151 2922.450276 3348.414570 3715.323461 4046.445083 4420.379620 4763.370268 5002.177492 5225.687744 5495.483254 5760.770285 6020.460159 6316.860719 6641.470673 7032.772176 7512.937640 8051.001101 8548.142830 9003.541143 9442.701464 9858.006407 10328.091198 10882.256278 11436.184123 11901.896321 12275.211399 12582.665835 12836.213513 13106.660785 13442.899469 13819.774096 14211.919093 14648.873823 15139.271499 15634.265506 16121.125592 16636.586800 17204.831198 17783.625002 18274.138840 18704.075416 19048.958892 19321.260359 19556.631617 19779.593165 20023.970093 20310.894133 20500.901356 20584.059339 20691.727896 20796.170697 20819.426601 20819.426601 20819.426601 -0.000011 -0.000011 -0.000011 -0.000012 -0.000014 -0.000019 -0.000024 -0.000027 -0.000027 -0.000021 -0.000004 0.000028 0.000087 0.000185 0.000342 0.000588 0.000962 0.001521 0.002344 0.003539 0.005254 0.007691 0.011121 0.015906 0.022529 0.031628 0.044039 0.060858 0.083508 0.113840 0.154269 0.207988 0.279364 0.374788 0.504677 0.688382 0.965996 1.425171 2.256357 3.851936 6.955142 12.850813 23.640202 42.820097 76.281215 132.251063 216.667893 327.857747 459.738285 584.613217 632.874758 591.914225 584.613018 746.998670 1121.326057 1646.854687 2179.977607 2582.751151 2922.450276 3348.414570 3715.323461 4046.445083 4420.379620 4763.370268 5002.177492 5225.687744 5495.483254 5760.770285 6020.460159 6316.860719 6641.470673 7032.772176 7512.937640 8051.001101 8548.142830 9003.541143 9442.701464 9858.006407 10328.091198 10882.256278 11436.184123 11901.896321 12275.211399 12582.665835 12836.213513 13106.660785 13442.899469 13819.774096 14211.919093 14648.873823 15139.271499 15634.265506 16121.125592 16636.586800 17204.831198 17783.625002 18274.138840 18704.075416 19048.958892 19321.260359 19556.631617 19779.593165 20023.970093 20310.894133 20500.901356 20584.059339 20691.727896 20796.170697 20819.426601 20819.426601 20819.426601 -0.000011 -0.000011 -0.000011 -0.000012 -0.000014 -0.000019 -0.000024 -0.000027 -0.000027 -0.000021 -0.000004 0.000028 0.000087 0.000185 0.000342 0.000588 0.000962 0.001521 0.002344 0.003539 0.005254 0.007691 0.011121 0.015906 0.022529 0.031628 0.044039 0.060858 0.083508 0.113840 0.154269 0.207988 0.279364 0.374788 0.504677 0.688382 0.965996 1.425171 2.256357 3.851936 6.955142 12.850813 23.640202 42.820097 76.281215 132.251063 216.667893 327.857747 459.738285 584.613217 632.874758 591.914225 584.613018 746.998670 1121.326057 1646.854687 2179.977607 2582.751151 2922.450276 3348.414570 3715.323461 4046.445083 4420.379620 4763.370268 5002.177492 5225.687744 5495.483254 5760.770285 6020.460159 6316.860719 6641.470673 7032.772176 7512.937640 8051.001101 8548.142830 9003.541143 9442.701464 9858.006407 10328.091198 10882.256278 11436.184123 11901.896321 12275.211399 12582.665835 12836.213513 13106.660785 13442.899469 13819.774096 14211.919093 14648.873823 15139.271499 15634.265506 16121.125592 16636.586800 17204.831198 17783.625002 18274.138840 18704.075416 19048.958892 19321.260359 19556.631617 19779.593165 20023.970093 20310.894133 20500.901356 20584.059339 20691.727896 20796.170697 20819.426601 20819.426601 20819.426601 -1388.568780 -1490.033962 -1642.530483 -1880.641794 -2334.878731 -2434.232655 -709.222700 -44.953357 -1086.366077 -1444.330871 350.212725 1017.694934 69.322830 -758.750045 -1475.673559 -134.236933 1358.553770 452.482428 -646.288504 -1416.604982 53.374563 2113.834163 5490.252435 7329.745850 2250.382576 -6858.852288 -1718.224729 910.874587 98.603788 4544.197485 5344.702191 3974.830080 7519.056999 6723.898489 7729.818414 8828.993439 9055.197413 6642.456390 7627.908852 8296.037894 8140.894774 8631.671133 10241.593375 10556.716287 11123.430807 11668.296677 12975.941521 14348.458451 13533.916948 13946.221650 12174.706060 11791.521848 12248.885184 12332.248283 12332.248283 12332.248283 295.471847 37.425415 -2538.729793 17195.614166 12145.475713 10677.258105 13261.755416 11594.829062 13824.158065 13436.805007 14621.028633 16419.769374 14707.186279 13031.673335 11834.265087 15181.341934 12108.691076 12620.333156 15355.155450 14844.937338 13817.603074 13971.791465 10651.278705 11674.193131 10767.766451 11528.215346 15256.524290 11202.718438 10654.986557 14045.605748 14906.882165 14662.368868 16101.615170 12171.206801 10854.435217 10530.922905 14301.635996 16907.325647 14765.498387 15346.113122 12503.154893 15209.511271 13750.236612 13470.253932 14949.305004 14898.303130 11126.979554 13288.097856 11585.708532 15790.833404 14793.864092 12344.112418 12653.699612 12694.238328 12694.238328 12694.238328 114.169474 -190.612681 12498.020336 9765.685300 18000.730010 12434.027201 16656.853819 14011.501784 14509.553879 14095.400928 13971.638207 13420.387650 16136.720447 13637.591816 12145.274439 13898.659159 11339.984639 14843.529065 14198.842515 12549.300957 10480.197234 11020.684040 10780.847436 11820.739663 12041.620478 11042.148815 13597.437158 10336.239630 11418.668419 10760.730870 8784.438632 9897.900735 10067.751575 10934.217963 11313.052797 9530.760191 10378.405538 9516.534451 9659.359128 12224.367420 10421.952198 11454.245741 6859.304222 15145.582322 9438.057843 11301.966425 10812.757693 14200.080330 5757.843938 13337.798473 13870.602437 12399.337550 13049.967609 13195.955092 13195.955092 13195.955092 -264.318914 6666.476874 14801.795614 13617.014372 18782.393703 12896.487999 16201.249689 13318.564275 13864.631557 15139.473843 15845.206481 11559.351890 14815.972876 11209.017890 13585.058190 15022.279267 14432.944513 13168.168740 14019.401292 15009.145511 14386.372974 12877.570496 9892.135751 13767.639099 13453.311699 10340.689575 12348.698347 13511.248672 13110.712462 13019.506694 13375.201561 10785.570401 8201.353323 1