<VTKFile type="PolyData">
<PolyData>
<Piece NumberOfPoints="8632" NumberOfVerts="8632" NumberOfLines="0" NumberOfStrips="0" NumberOfPolys="0">
<PointData>
<DataArray type="Float64" Name="Pressure" format="ascii">
 -6.102815 -6.102815 -6.102815 -6.170105 -6.924640 -8.871726 -11.078015 -13.591697 -16.399653 -19.504140 -22.927805 -26.705230 -30.877548 -35.489975 -40.590834 -46.231179 -52.464645 -59.347369 -66.937921 -75.297208 -84.488355 -94.576541 -105.628793 -117.713742 -130.901318 -145.262412 -160.868475 -177.791074 -196.101386 -215.869646 -237.164536 -260.052519 -284.597118 -310.858132 -338.890808 -368.744962 -400.464059 -434.084283 -469.633612 -507.130947 -546.585349 -587.995456 -631.349153 -676.623586 -723.785579 -772.792461 -823.593197 -876.129464 -930.335836 -986.137239 -1043.439693 -1102.105522 -1161.893437 -1222.325730 -1282.431152 -1340.622719 -1395.220531 -1444.558633 -1485.536177 -1511.772417 -1510.939466 -1460.611724 -1332.189813 -1136.424686 -952.414972 -815.052732 -671.342168 -490.575336 -338.107577 -269.416001 -250.994868 -217.683749 -122.188387 6.915281 81.832420 85.356279 61.362341 59.294208 126.949264 295.067498 533.516521 775.365974 1003.905036 1245.175528 1528.416613 1872.783562 2285.153393 2764.051648 3303.700710 3888.693973 4503.795409 5142.076608 5794.139276 6449.776706 7096.726819 7734.141919 8375.018687 9022.568279 9655.545817 10242.637877 10763.306505 11212.315224 11597.794364 11935.112726 12241.855514 12518.941110 12742.095776 12864.654445 12885.277056 12885.277056 12885.277056 -6.102815 -6.102815 -6.102815 -6.170105 -6.924640 -8.871726 -11.078015 -13.591697 -16.399653 -19.504140 -22.927805 -26.705230 -30.877548 -35.489975 -40.590834 -46.231179 -52.464645 -59.347369 -66.937921 -75.297208 -84.488355 -94.576541 -105.628793 -117.713742 -130.901318 -145.262412 -160.868475 -177.791074 -196.101386 -215.869646 -237.164536 -260.052519 -284.597118 -310.858132 -338.890808 -368.744962 -400.464059 -434.084283 -469.633612 -507.130947 -546.585349 -587.995456 -631.349153 -676.623586 -723.785579 -772.792461 -823.593197 -876.129464 -930.335836 -986.137239 -1043.439693 -1102.105522 -1161.893437 -1222.325730 -1282.431152 -1340.622719 -1395.220531 -1444.558633 -1485.536177 -1511.772417 -1510.939466 -1460.611724 -1332.189813 -1136.424686 -952.414972 -815.052732 -671.342168 -490.575336 -338.107577 -269.416001 -250.994868 -217.683749 -122.188387 6.915281 81.832420 85.356279 61.362341 59.294208 126.949264 295.067498 533.516521 775.365974 1003.905036 1245.175528 1528.416613 1872.783562 2285.153393 2764.051648 3303.700710 3888.693973 4503.795409 5142.076608 5794.139276 6449.776706 7096.726819 7734.141919 8375.018687 9022.568279 9655.545817 10242.637877 10763.306505 11212.315224 11597.794364 11935.112726 12241.855514 12518.941110 12742.095776 12864.654445 12885.277056 12885.277056 12885.277056 -6.102815 -6.102815 -6.102815 -6.170105 -6.924640 -8.871726 -11.078015 -13.591697 -16.399653 -19.504140 -22.927805 -26.705230 -30.877548 -35.489975 -40.590834 -46.231179 -52.464645 -59.347369 -66.937921 -75.297208 -84.488355 -94.576541 -105.628793 -117.713742 -130.901318 -145.262412 -160.868475 -177.791074 -196.101386 -215.869646 -237.164536 -260.052519 -284.597118 -310.858132 -338.890808 -368.744962 -400.464059 -434.084283 -469.633612 -507.130947 -546.585349 -587.995456 -631.349153 -676.623586 -723.785579 -772.792461 -823.593197 -876.129464 -930.335836 -986.137239 -1043.439693 -1102.105522 -1161.893437 -1222.325730 -1282.431152 -1340.622719 -1395.220531 -1444.558633 -1485.536177 -1511.772417 -1510.939466 -1460.611724 -1332.189813 -1136.424686 -952.414972 -815.052732 -671.342168 -490.575336 -338.107577 -269.416001 -250.994868 -217.683749 -122.188387 6.915281 81.832420 85.356279 61.362341 59.294208 126.949264 295.067498 533.516521 775.365974 1003.905036 1245.175528 1528.416613 1872.783562 2285.153393 2764.051648 3303.700710 3888.693973 4503.795409 5142.076608 5794.139276 6449.776706 7096.726819 7734.141919 8375.018687 9022.568279 9655.545817 10242.637877 10763.306505 11212.315224 11597.794364 11935.112726 12241.855514 12518.941110 12742.095776 12864.654445 12885.277056 12885.277056 12885.277056 -6.076050 -6.076050 -6.076050 -6.142076 -6.891181 -8.825381 -11.037088 -13.566662 -16.386184 -19.495832 -22.921299 -26.699060 -30.871099 -35.482984 -40.583176 -46.222783 -52.455461 -59.337358 -66.927047 -75.285438 -84.475659 -94.562891 -105.614167 -117.698118 -130.884682 -145.244754 -160.849793 -177.771371 -196.080673 -215.847942 -237.141871 -260.028933 -284.572659 -310.832863 -338.864802 -368.718307 -400.436854 -434.056643 -469.605662 -507.102825 -546.557202 -587.967439 -631.321424 -676.596312 -723.758941 -772.766697 -823.568709 -876.107105 -930.317629 -986.128187 -1043.452266 -1102.170518 -1162.084296 -1222.801934 -1283.388880 -1342.098028 -1397.121799 -1447.361024 -1490.365472 -1520.639367 -1527.058734 -1485.900879 -1367.322786 -1155.450458 -934.304183 -813.823570 -686.054854 -486.968089 -303.861800 -250.035457 -255.716229 -239.956967 -141.273906 31.556949 106.776306 96.628360 56.493080 38.495940 95.564503 276.308061 542.463346 793.737221 1017.307630 1253.375239 1535.651363 1884.371394 2305.359194 2793.003221 3344.233578 3934.161811 4542.841258 5176.077044 5825.287930 6487.193781 7137.017271 7769.558375 8407.512781 9063.655243 9708.675880 10300.666064 10820.620259 11260.742435 11632.815083 11956.333810 12259.398591 12549.151551 12773.912879 12881.737938 12898.431992 12898.431992 12898.431992 -5.785119 -5.785119 -5.785119 -5.837382 -6.483572 -8.210515 -10.510445 -13.300937 -16.250644 -19.413527 -22.856702 -26.637571 -30.806721 -35.413144 -40.506649 -46.138872 -52.363679 -59.237304 -66.818364 -75.167797 -84.348758 -94.426457 -105.467962 -117.541944 -130.718391 -145.068250 -160.663042 -177.574409 -195.873613 -215.630981 -236.915298 -259.793138 -284.328142 -310.580238 -338.604810 -368.451815 -400.164866 -433.780292 -469.326211 -506.821651 -546.275779 -587.687308 -631.044178 -676.323599 -723.492572 -772.509017 -823.323648 -875.882937 -930.133989 -986.033674 -1043.568348 -1102.800001 -1163.972772 -1227.674925 -1295.012526 -1360.404675 -1418.446273 -1477.769345 -1542.596006 -1616.978932 -1707.373798 -1821.753708 -1959.861907 -1354.674318 -681.943433 -826.170141 -1038.071932 -459.458912 188.870784 -13.638746 -312.569365 -604.831814 -428.669797 399.335419 475.318740 224.926289 0.398260 -209.474479 -360.266013 -37.593134 744.542725 1050.406251 1175.642501 1345.035861 1619.399846 2037.945008 2586.774010 3199.439420 3936.526416 4603.068175 5093.186669 5634.044373 6243.765188 7019.969443 7733.393268 8259.389930 8807.153329 9565.215929 10360.995956 10989.255151 11495.596998 11821.402443 12009.514028 12140.018727 12381.561430 12895.556356 13180.821573 13091.458991 13046.411079 13046.411079 13046.411079 -5.368631 -5.368631 -5.368631 -5.409517 -5.879761 -7.122478 -9.359190 -12.837305 -16.054027 -19.305085 -22.777722 -26.565562 -30.732752 -35.333483 -40.419589 -46.043496 -52.259386 -59.123619 -66.694872 -75.034121 -84.204552 -94.271410 -105.301801 -117.364445 -130.529381 -144.867621 -160.450755 -177.350502 -195.638213 -215.384311 -236.657686 -259.525026 -284.050095 -310.292955 -338.309130 -368.148726 -399.855506 -433.465953 -469.008331 -506.501800 -545.955641 -587.368657 -630.728860 -676.013567 -723.190070 -772.217151 -823.047978 -875.635597 -929.944165 -985.973964 -1043.821126 -1103.826243 -1166.954652 -1235.821803 -1317.660923 -1389.058474 -1444.844695 -1513.270332 -1603.411134 -1729.816383 -1922.938519 -2268.904818 -2496.679963 -1033.641213 -43.925795 -859.588061 -1535.753179 -263.978825 1003.920457 335.021485 -387.475570 -1138.814228 -831.380056 909.925556 1004.079174 382.336788 -67.351388 -537.868333 -1178.483448 -576.802878 1281.043670 1534.033964 1380.228194 1460.771147 1730.538197 2260.581566 3253.393771 3855.928790 5429.792568 6383.070900 6001.075014 6568.716184 6609.956611 8086.324812 8886.057482 9047.643328 8933.389018 10158.401844 11456.134971 11670.315404 12514.514735 12518.193453 12521.066220 12452.080716 12358.578208 13647.351425 14154.559305 13369.191318 13247.076054 13247.076054 13247.076054 -5.309139 -5.309139 -5.309139 -5.348441 -5.796361 -6.949908 -4.892233 -4.892233 -4.892233 -4.917983 -5.210355 -5.848285 -4.238298 -4.238298 -4.238298 -4.249728 -4.371671 -4.578666 -3.639556 -3.639556 -3.639556 -3.643890 -3.686762 -3.757702 -3.109258 -3.109258 -3.109258 -3.110434 -3.121676 -3.142539 -2.646650 -2.646650 -2.646650 -2.646613 -2.646002 -2.648416 -2.246466 -2.246466 -2.246466 -2.246013 -2.241382 -2.237339 -1.902034 -1.902034 -1.902034 -1.901474 -1.895841 -1.889926 -1.606645 -1.606645 -1.606645 -1.606094 -1.600576 -1.594506 -1.354047 -1.354047 -1.354047 -1.353545 -1.348521 -1.342898 -1.138602 -1.138602 -1.138602 -1.138158 -1.133722 -1.128722 -0.955295 -0.955295 -0.955295 -0.954909 -0.951048 -0.946684 -0.799707 -0.799707 -0.799707 -0.799373 -0.796040 -0.792266 -0.667959 -0.667959 -0.667959 -0.667672 -0.664808 -0.661564 -0.556663 -0.556663 -0.556663 -0.556417 -0.553965 -0.551187 -0.462865 -0.462865 -0.462865 -0.462656 -0.460562 -0.458191 -0.384003 -0.384003 -0.384003 -0.383824 -0.382043 -0.380024 -0.317855 -0.317855 -0.317855 -0.317703 -0.316190 -0.314477 -0.262503 -0.262503 -0.262503 -0.262375 -0.261094 -0.259643 -0.216296 -0.216296 -0.216296 -0.216188 -0.215106 -0.213880 -0.177815 -0.177815 -0.177815 -0.177724 -0.176812 -0.175780 -0.145845 -0.145845 -0.145845 -0.145768 -0.145002 -0.144135 -0.119348 -0.119348 -0.119348 -0.119283 -0.118641 -0.117914 -0.097439 -0.097439 -0.097439 -0.097386 -0.096849 -0.096241 -0.079369 -0.079369 -0.079369 -0.079324 -0.078876 -0.078370 -0.064500 -0.064500 -0.064500 -0.064462 -0.064090 -0.063669 -0.052294 -0.052294 -0.052294 -0.052263 -0.051955 -0.051605 -0.042300 -0.042300 -0.042300 -0.042274 -0.042019 -0.041730 -0.034136 -0.034136 -0.034136 -0.034115 -0.033904 -0.033665 -0.027483 -0.027483 -0.027483 -0.027466 -0.027292 -0.027095 -0.022075 -0.022075 -0.022075 -0.022061 -0.021918 -0.021757 -0.017690 -0.017690 -0.017690 -0.017678 -0.017561 -0.017429 -0.014142 -0.014142 -0.014142 -0.014132 -0.014037 -0.013929 -0.011279 -0.011279 -0.011279 -0.011271 -0.011194 -0.011106 -0.008975 -0.008975 -0.008975 -0.008968 -0.008905 -0.008834 -0.007124 -0.007124 -0.007124 -0.007119 -0.007068 -0.007010 -0.005642 -0.005642 -0.005642 -0.005638 -0.005596 -0.005549 -0.004457 -0.004457 -0.004457 -0.004454 -0.004420 -0.004383 -0.003513 -0.003513 -0.003513 -0.003510 -0.003483 -0.003453 -0.002762 -0.002762 -0.002762 -0.002760 -0.002738 -0.002714 -0.002167 -0.002167 -0.002167 -0.002165 -0.002148 -0.002128 -0.001696 -0.001696 -0.001696 -0.001694 -0.001680 -0.001665 -0.001324 -0.001324 -0.001324 -0.001323 -0.001312 -0.001299 -0.001031 -0.001031 -0.001031 -0.001030 -0.001021 -0.001011 -0.000801 -0.000801 -0.000801 -0.000800 -0.000793 -0.000786 -0.000621 -0.000621 -0.000621 -0.000620 -0.000615 -0.000609 -0.000480 -0.000480 -0.000480 -0.000480 -0.000475 -0.000470 -0.000370 -0.000370 -0.000370 -0.000370 -0.000367 -0.000363 -0.000285 -0.000285 -0.000285 -0.000285 -0.000282 -0.000279 -0.000219 -0.000219 -0.000219 -0.000219 -0.000216 -0.000214 -0.000168 -0.000168 -0.000168 -0.000167 -0.000166 -0.000164 -0.000128 -0.000128 -0.000128 -0.000128 -0.000127 -0.000125 -0.000098 -0.000098 -0.000098 -0.000097 -0.000096 -0.000095 -0.000074 -0.000074 -0.000074 -0.000074 -0.000073 -0.000072 -0.000056 -0.000056 -0.000056 -0.000056 -0.000056 -0.000055 -0.000043 -0.000043 -0.000043 -0.000043 -0.000042 -0.000042 -0.000032 -0.000032 -0.000032 -0.000032 -0.000032 -0.000031 -0.000024 -0.000024 -0.000024 -0.000024 -0.000024 -0.000024 -0.000018 -0.000018 -0.000018 -0.000018 -0.000018 -0.000018 -0.000014 -0.000014 -0.000014 -0.000014 -0.000013 -0.000013 -0.000010 -0.000010 -0.000010 -0.000010 -0.000010 -0.000010 -0.000008 -0.000008 -0.000008 -0.000008 -0.000007 -0.000007 -0.000006 -0.000006 -0.000006 -0.000006 -0.000006 -0.000005 -0.000004 -0.000004 -0.000004 -0.000004 -0.000004 -0.000004 -0.000003 -0.000003 -0.000003 -0.000003 -0.000003 -0.000003 -0.000002 -0.000002 -0.000002 -0.000002 -0.000002 -0.000002 -0.000002 -0.000002 -0.000002 -0.000002 -0.000002 -0.000002 -0.000001 -0.000001 -0.000001 -0.000001 -0.000001 -0.000001 -0.000001 -0.000001 -0.000001 -0.000001 -0.000001 -0.000001 -0.000001 -0.000001 -0.000001 -0.000001 -0.000001 -0.000001 -0.000000 -0.000000 -0.000000 -0.000000 -0.000000 -0.000000 -0.000000 -0.000000 -0.000000 -0.000000 -0.000000 -0.000000 -0.000000 -0.000000 -0.000000 -0.000000 -0.000000 -0.000000 -0.000000 -0.000000 -0.000000 -0.000000 -0.000000 -0.000000 -0.000000 -0.000000 -0.000000 -0.000000 -0.000000 -0.000000 -0.000000 -0.000000 -0.000000 -0.000000 -0.000000 -0.000000 -0.000000 -0.000000 -0.000000 -0.000000 -0.000000 -0.000000 -0.000000 -0.000000 -0.000000 -0.000000 -0.000000 -0.000000 -0.000000 -0.000000 -0.000000 -0.000000 -0.000000 -0.000000 -0.000000 -0.000000 -0.000000 -0.000000 -0.000000 -0.000000 -0.000000 -0.000000 -0.000000 -0.000000 -0.000000 -0.000000 -0.000000 -0.000000 -0.000000 -0.000000 -0.000000 -0.000000 -0.000000 -0.000000 -0.000000 -0.000000 -0.000000 -0.000000 -0.000000 -0.000000 -0.000000 -0.000000 -0.000000 -0.000000 -0.000000 -0.000000 -0.000000 -0.000000 -0.000000 -0.000000 -0.000000 -0.000000 -0.000000 -0.000000 -0.000000 -0.000000 -0.000000 -0.000000 -0.000000 -0.000000 -0.000000 -0.000000 -0.000000 -0.000000 -0.000000 -0.000000 -0.000000 -0.000000 -0.000000 -0.000000 -0.000000 -0.000000 -0.000000 -0.000000 -0.000000 -0.000000 -0.000000 -0.000000 -0.000000 -0.000000 -0.000000 -0.000000 -0.000000 -0.000000 -0.000000 -0.000000 -0.000000 -0.000000 -0.000000 -0.000000 -0.000000 -0.000000 -0.000000 -0.000000 -0.000000 -0.000000 -0.000000 -0.000000 -0.000000 -0.000000 -0.000000 -0.000000 -0.000000 -0.000000 -0.000000 -0.000000 -0.000000 -0.000000 -0.000000 -0.000000 -0.000000 -0.000000 -0.000000 -0.000000 -0.000000 -0.000000 -0.000000 -0.000000 -0.000000 -0.000000 -0.000000 -0.000000 -0.000000 -0.000000 -0.000000 -0.000000 -0.000000 -0.000000 -0.000000 -0.000000 -0.000000 -0.000000 -0.000000 -0.000000 -0.000000 -0.000000 -0.000000 -0.000000 -0.000000 -0.000000 -0.000000 -0.000000 -0.000000 -0.000000 -0.000000 -0.000000 -0.000000 -0.000000 -0.000000 -0.000000 -0.000000 -0.000000 -0.000000 -0.000000 -0.000000 -0.000000 -0.000000 -0.000000 -0.000000 -0.000000 -0.000000 -0.000000 -0.000000 -0.000000 -0.000000 -0.000000 -0.000000 -0.000000 -0.000000 -0.000000 -0.000000 -0.000000 -0.000000 -0.000000 -0.000000 -0.000000 -0.000000 -0.000000 -0.000000 -0.000000 -0.000000 -0.000000 -0.000000 -0.000000 -0.000000 -0.000000 -0.000000 -0.000000 -0.000000 -0.000000 -0.000000 -0.000000 -0.000000 -0.000000 -0.000000 -0.000000 -0.000000 -0.000000 -0.000000 -0.000000 -0.000000 -0.000000 -0.000000 -0.000000 -0.000000 -0.000000 -0.000000 -0.000000 -0.000000 -0.000000 -0.000000 -0.000000 -0.000000 -0.000000 -0.000000 -0.000000 -0.000000 -0.000000 -0.000000 -0.000000 -0.000000 -0.000000 -0.000000 -0.000000 -0.000000 -0.000000 -0.000000 -0.000000 -0.000000 -0.000000 -0.000000 -0.000000 -0.000000 -0.000000 -0.000000 -0.000000 -0.000000 -0.000000 -0.000000 -0.000000 -0.000000 -0.000000 -0.000000 -0.000000 -0.000000 -0.000000 -0.000000 -0.000000 -0.000000 -0.000000 -0.000000 -0.000000 -0.000000 -0.000000 -0.000000 -0.000000 -0.000000 -0.000000 -0.000000 -0.000000 -0.000000 -0.000000 -0.000000 -0.000000 -0.000000 -0.000000 -0.000000 -0.000000 -0.000000 -0.000000 -0.000000 -0.000000 -0.000000 -0.000000 -0.000000 -0.000000 -0.000000 -0.000000 -0.000000 -0.000000 -0.000000 -0.000000 -0.000000 -0.000000 -0.000000 -0.000000 -0.000000 -0.000000 -0.000000 -0.000000 -0.000000 -0.000000 -0.000000 -0.000000 -0.000000 -0.000000 -0.000000 -0.000000 -0.000000 -0.000000 -0.000000 -0.000000 -0.000000 -0.000000 -0.000000 -0.000000 -0.000000 -0.000000 -0.000000 -0.000000 -0.000000 -0.000000 -0.000000 -0.000000 -0.000000 -0.000000 -0.000000 -0.000000 -0.000000 -0.000000 -0.000000 -0.000000 -0.000000 -0.000000 -0.000000 -0.000000 -0.000000 -0.000000 -0.000000 -0.000000 -0.000000 -0.000000 -0.000000 -0.000000 -0.000000 -0.000000 -0.000000 -0.000000 -0.000000 -0.000000 -0.000000 -0.000000 -0.000000 -0.000000 -0.000000 -0.000000 -0.000000 -0.000000 -0.000000 -0.000000 -0.000000 -0.000000 -0.000000 -0.000000 -0.000000 -0.000000 -0.000000 -0.000000 -0.000000 -0.000000 -0.000000 -0.000000 -0.000000 -0.000000 -0.000000 -0.000000 -0.000000 -0.000000 -0.000000 -0.000000 -0.000000 -0.000000 -0.000000 -0.000000 -0.000000 -0.000000 -0.000000 -0.000000 -0.000000 -0.000000 -0.000000 -0.000000 -0.000000 -0.000000 -0.000000 -0.000000 -0.000000 -0.000000 -0.000000 -0.000000 -0.000000 -0.000000 -0.000000 -0.000000 -0.000000 -0.000000 -0.000000 -0.000000 -0.000000 -0.000000 -0.000000 -0.000000 -0.000000 -0.000000 -0.000000 -0.000000 -0.000000 -0.000000 -0.000000 -0.000000 -0.000000 -0.000000 -0.000000 -0.000000 -0.000000 -0.000000 -0.000000 -0.000000 -0.000000 -0.000000 -0.000000 -0.000000 -0.000000 -0.000000 -0.000000 -0.000000 -0.000000 -0.000000 -0.000000 -0.000000 -0.000000 -0.000000 -0.000000 -0.000000 -0.000000 -0.000000 -0.000000 -0.000000 -0.000000 -0.000000 -0.000000 -0.000000 -0.000000 -0.000000 -0.000000 -0.000000 -0.000000 -0.000000 -0.000000 -0.000000 -0.000000 -0.000000 -0.000000 -0.000000 -0.000000 -0.000000 -0.000000 -0.000000 -0.000000 -0.000000 -0.000000 -0.000000 -0.000000 -0.000000 -0.000000 -0.000000 -0.000000 -0.000000 -0.000000 -0.000000 -0.000000 -0.000000 -0.000000 -0.000000 -0.000000 -0.000000 -0.000000 -0.000000 -0.000000 -0.000000 -0.000000 -0.000000 -0.000000 -0.000000 -0.000000 -0.000000 -0.000000 -0.000000 -0.000000 -0.000000 -0.000000 -0.000000 -0.000000 -0.000000 -0.000000 -0.000000 -0.000000 -0.000000 -0.000000 -0.000000 -0.000000 -0.000000 -0.000000 -0.000000 -0.000000 -0.000000 -0.000000 -0.000000 -0.000000 -0.000000 -0.000000 -0.000000 0.000000 0.000000 0.000000 0.000000 0.000000 0.000000 0.000000 0.000000 0.000000 0.000000 0.000000 0.000000 0.000000 0.000000 0.000000 0.000000 0.000000 0.000000 0.000000 0.000000 0.000000 0.000000 0.000000 0.000000 0.000000 0.000000 0.000000 0.000000 0.000000 0.000000 0.000000 0.000000 0.000000 0.000000 0.000000 0.000000 0.000000 0.000000 0.000000 0.000000 0.000000 0.000000 0.000001 0.000001 0.000001 0.000001 0.000001 0.000001 0.000001 0.000001 0.000001 0.000001 0.000001 0.000001 0.000002 0.000002 0.000002 0.000002 0.000002 0.000002 0.000003 0.000003 0.000003 0.000002 0.000002 0.000002 0.000004 0.000004 0.000004 0.000004 0.000004 0.000004 0.000006 0.000006 0.000006 0.000006 0.000006 0.000006 0.000009 0.000009 0.000009 0.000009 0.000009 0.000008 0.000013 0.000013 0.000013 0.000013 0.000013 0.000013 0.000020 0.000020 0.000020 0.000020 0.000020 0.000019 0.000030 0.000030 0.000030 0.000030 0.000029 0.000029 0.000045 0.000045 0.000045 0.000045 0.000044 0.000043 0.000067 0.000067 0.000067 0.000066 0.000065 0.000064 0.000099 0.000099 0.000099 0.000098 0.000096 0.000094 0.000146 0.000146 0.000146 0.000145 0.000142 0.000139 0.000214 0.000214 0.000214 0.000213 0.000209 0.000205 0.000313 0.000313 0.000313 0.000313 0.000307 0.000300 0.000457 0.000457 0.000457 0.000456 0.000447 0.000438 0.000664 0.000664 0.000664 0.000663 0.000650 0.000637 0.000960 0.000960 0.000960 0.000959 0.000941 0.000922 0.001383 0.001383 0.001383 0.001381 0.001357 0.001331 0.001983 0.001983 0.001983 0.001980 0.001947 0.001911 0.002831 0.002831 0.002831 0.002826 0.002782 0.002734 0.004020 0.004020 0.004020 0.004014 0.003957 0.003897 0.005680 0.005680 0.005680 0.005673 0.005605 0.005537 0.007980 0.007980 0.007980 0.007974 0.007909 0.007855 0.011146 0.011146 0.011146 0.011145 0.011127 0.011162 0.015458 0.015458 0.015458 0.015476 0.015642 0.015973 0.021251 0.021251 0.021251 0.021325 0.022047 0.023252 0.028863 0.028863 0.028863 0.029087 0.031338 0.035025 0.038492 0.038492 0.038492 0.039061 0.045184 0.056061 0.049935 0.049935 0.049935 0.051113 0.064779 0.099889 0.062402 0.062402 0.062402 0.064296 0.087401 0.153863 0.261596 0.406174 0.566923 0.760908 1.001374 1.301614 1.676388 2.142576 2.719572 3.429537 4.297561 5.351701 6.622873 8.144566 9.952315 12.082900 14.573198 17.458658 20.771345 24.537528 28.774822 33.488886 38.669762 44.287951 50.290392 56.596545 63.094851 69.639871 76.050434 82.109144 87.563577 92.129452 95.495965 97.333386 97.302837 95.068036 90.308569 82.734122 72.098881 58.215150 40.964975 20.308133 -3.716046 -30.997423 -61.382793 -94.739853 -131.093930 -170.916958 -215.743918 -269.506096 -341.454137 -452.654517 -651.105271 -1044.773374 -1993.951640 -2883.842813 690.610172 3101.631508 1509.653136 523.766291 -356.077357 -2051.688769 -2740.803154 2160.871227 3906.500900 2636.441896 2272.044563 2105.267923 1921.948213 1546.324922 696.186757 -1623.778457 -2557.163982 4094.100542 6229.122511 5017.296758 4208.649861 3162.617707 4094.318693 5463.897758 6550.106294 6924.611766 6664.849388 7691.409488 6907.210869 9059.377194 11366.374566 13401.249231 13309.164574 12498.284712 13439.166917 12600.996603 14264.796107 13762.098719 12986.438010 12308.395179 13795.349835 12698.608086 11274.225870 13874.391674 17834.667552 18771.440375 18928.534953 18928.534953 18928.534953 0.075141 0.075141 0.075141 0.077550 0.107308 0.187607 0.289832 0.418181 0.575265 0.769072 1.010684 1.312773 1.689902 2.158894 2.739134 3.452791 4.324952 5.383656 6.659778 8.186728 9.999925 12.135979 14.631545 17.521783 20.838400 24.607245 28.845445 33.558115 38.734716 44.345152 50.335780 56.625531 63.102419 69.620727 75.999203 82.020623 87.433026 91.952914 95.270603 97.057809 96.977400 94.695084 89.892623 82.281995 71.619769 57.720797 40.470168 19.832097 -4.146021 -31.337106 -61.549997 -94.565585 -130.210110 -168.500063 -209.932551 -256.081542 -310.843441 -383.010249 -490.960953 -667.889166 -911.169933 -1003.534777 333.841978 1256.040679 909.902632 545.503787 161.464054 -231.590408 -181.052185 1423.910513 2259.427167 2219.871605 2159.515032 2137.711129 2097.864857 1978.392099 1705.235897 1424.952211 1753.930037 3711.741377 4878.048965 5178.698822 5248.283063 5484.144680 6168.333899 7193.276218 8146.689730 8851.804801 9317.834597 9836.879874 10316.359899 11195.108326 12211.973316 12885.478289 12958.453220 12955.500540 13455.478287 13397.010275 14039.470904 14352.705085 14067.855219 13498.825248 14164.723702 13956.946500 13937.708701 15428.397865 17576.148083 18951.018813 19194.681611 19194.681611 19194.681611 0.082452 0.082452 0.082452 0.085212 0.117397 0.202192 0.303409 0.428532 0.584035 0.778204 1.021296 1.325567 1.705420 2.177635 2.761597 3.479483 4.356379 5.420305 6.702083 8.235036 10.054447 12.196732 14.698288 17.593943 20.915000 24.686822 28.925978 33.636966 38.808584 44.410056 50.387078 56.657985 63.110307 69.598013 75.939772 81.918558 87.282947 91.750338 95.012328 96.742284 96.605061 94.268629 89.417210 81.765361 71.072295 57.155613 39.903530 19.284570 -4.646348 -31.746553 -61.789952 -94.477242 -129.450020 -166.301335 -204.562825 -243.621664 -282.462688 -318.995573 -348.340622 -357.823340 -313.584381 -135.881054 199.856881 481.533635 576.174480 573.214505 566.784346 634.501560 886.900796 1324.647473 1707.330977 1931.272724 2066.549627 2167.721169 2257.399623 2355.515503 2499.848091 2772.980311 3300.129273 4065.849727 4792.520404 5368.655509 5877.062839 6431.519949 7112.532452 7908.192802 8734.277308 9510.746360 10223.298045 10890.841516 11521.420185 12141.625709 12706.770967 13160.030013 13496.836983 13796.618011 14084.585549 14348.354101 14625.260375 14860.219022 15043.371083 15276.099267 15628.150529 16019.794974 16596.584319 17445.655733 18472.842665 19233.819575 19382.984818 19382.984818 19382.984818 0.083486 0.083486 0.083486 0.086346 0.118755 0.204002 0.305256 0.430141 0.585536 0.779820 1.023194 1.327862 1.708206 2.181001 2.765631 3.484275 4.362020 5.426881 6.709672 8.243700 10.064222 12.207621 14.710246 17.606867 20.928714 24.701062 28.940381 33.651059 38.821774 44.421631 50.396205 56.663727 63.111640 69.593859 75.929037 81.900187 87.255979 91.713976 94.966002 96.685720 96.538340 94.192236 89.332069 81.672852 70.974264 57.054382 39.801946 19.186175 -4.736832 -31.821989 -61.837787 -94.472456 -129.338795 -165.963688 -203.727818 -241.677048 -278.035144 -309.066288 -326.632648 -313.602886 -238.811801 -65.171560 191.681472 417.094224 534.079946 578.404787 622.068633 737.056648 981.031335 1330.406875 1659.428366 1894.488182 2053.071585 2172.403692 2281.929850 2412.211994 2608.971775 2939.148085 3458.819079 4128.434077 4802.782698 5402.897662 5961.307988 6553.045305 7233.433703 8001.003869 8803.793506 9585.894247 10322.439079 11010.951125 11653.628689 12252.984985 12789.130149 13238.684764 13606.806689 13928.708423 14220.580757 14486.300434 14742.597359 14981.987071 15216.947877 15500.914276 15867.143465 16315.753987 16919.397902 17711.483241 18614.036002 19278.721292 19410.095125 19410.095125 19410.095125 0.083486 0.083486 0.083486 0.086346 0.118755 0.204002 0.305256 0.430141 0.585536 0.779820 1.023194 1.327862 1.708206 2.181001 2.765631 3.484275 4.362020 5.426881 6.709672 8.243700 10.064222 12.207621 14.710246 17.606867 20.928714 24.701062 28.940381 33.651059 38.821774 44.421631 50.396205 56.663727 63.111640 69.593859 75.929037 81.900187 87.255979 91.713976 94.966002 96.685720 96.538340 94.192236 89.332069 81.672852 70.974264 57.054382 39.801946 19.186175 -4.736832 -31.821989 -61.837787 -94.472456 -129.338795 -165.963688 -203.727818 -241.677048 -278.035144 -309.066288 -326.632648 -313.602886 -238.811801 -65.171560 191.681472 417.094224 534.079946 578.404787 622.068633 737.056648 981.031335 1330.406875 1659.428366 1894.488182 2053.071585 2172.403692 2281.929850 2412.211994 2608.971775 2939.148085 3458.819079 4128.434077 4802.782698 5402.897662 5961.307988 6553.045305 7233.433703 8001.003869 8803.793506 9585.894247 10322.439079 11010.951125 11653.628689 12252.984985 12789.130149 13238.684764 13606.806689 13928.708423 14220.580757 14486.300434 14742.597359 14981.987071 15216.947877 15500.914276 15867.143465 16315.753987 16919.397902 17711.483241 18614.036002 19278.721292 19410.095125 19410.095125 19410.095125 0.083486 0.083486 0.083486 0.086346 0.118755 0.204002 0.305256 0.430141 0.585536 0.779820 1.023194 1.327862 1.708206 2.181001 2.765631 3.484275 4.362020 5.426881 6.709672 8.243700 10.064222 12.207621 14.710246 17.606867 20.928714 24.701062 28.940381 33.651059 38.821774 44.421631 50.396205 56.663727 63.111640 69.593859 75.929037 81.900187 87.255979 91.713976 94.966002 96.685720 96.538340 94.192236 89.332069 81.672852 70.974264 57.054382 39.801946 19.186175 -4.736832 -31.821989 -61.837787 -94.472456 -129.338795 -165.963688 -203.727818 -241.677048 -278.035144 -309.066288 -326.632648 -313.602886 -238.811801 -65.171560 191.681472 417.094224 534.079946 578.404787 622.068633 737.056648 981.031335 1330.406875 1659.428366 1894.488182 2053.071585 2172.403692 2281.929850 2412.211994 2608.971775 2939.148085 3458.819079 4128.434077 4802.782698 5402.897662 5961.307988 6553.045305 7233.433703 8001.003869 8803.793506 9585.894247 10322.439079 11010.951125 11653.628689 12252.984985 12789.130149 13238.684764 13606.806689 13928.708423 14220.580757 14486.300434 14742.597359 14981.987071 15216.947877 15500.914276 15867.143465 16315.753987 16919.397902 17711.483241 18614.036002 19278.721292 19410.095125 19410.095125 19410.095125 -1403.251190 -1459.296265 -1532.395317 -1630.453157 -1771.936254 -1988.497187 -2383.181640 -2261.126618 -495.182915 -62.426474 -1067.625609 -1445.198067 229.411725 1038.755210 184.060515 -547.599842 -1297.756256 -528.208389 1142.676610 902.594515 298.434789 -166.753327 -705.885341 -1365.778797 -218.391673 1580.137929 1531.218034 1398.061210 1506.297720 1823.390331 2563.720382 3821.243253 4265.873684 6308.400632 6700.062471 6236.985263 6810.291659 6761.566892 8622.285782 9108.027807 9073.633490 8850.696410 10526.173651 11600.869683 11782.934329 12686.067846 12540.775873 12672.447778 12565.821964 12507.585697 14203.621235 14189.112180 13337.895907 13266.334065 13266.334065 13266.334065 -2134.766829 -532.406895 4572.553422 13983.350806 15120.576950 13128.966281 14599.430646 12781.245832 13351.682282 13478.837272 12566.115451 11788.733125 12977.885485 10993.137085 13269.381786 13533.333572 14881.831525 11399.776378 12955.921450 14131.898486 14464.424197 15421.662718 11443.246705 13653.961099 12997.920131 13065.127631 12670.781381 12680.451420 12655.928060 15058.450011 12631.274238 15509.596705 14149.664249 13038.840052 14159.265999 14470.889854 14946.191587 14717.669487 13733.964206 13120.802622 14856.177844 12840.818723 14631.301415 13672.025106 13168.778260 14321.451943 12847.030552 14404.385489 12490.905622 14616.174830 14595.332244 14888.344231 13480.035150 13332.980508 13332.980508 13332.980508 -104.474805 2835.551601 14752.331111 6039.323487 12647.929712 15011.835863 11769.427491 14265.625945 14581.698928 14587.583374 13352.974506 14708.325832 11188.867596 13622.037608 12726.117933 13433.524034 14938.056569 12558.155636 13137.446831 14207.827920 12519.939436 13127.983904 14799.276958 14521.035199 14301.057571 11771.153790 12807.392031 12794.975929 13170.038874 9859.997677 11660.319776 13880.192379 12064.305459 12790.859733 12617.724304 12714.028100 12502.191623 14030.635144 14761.723885 16677.052915 13514.413655 13057.195196 12026.432534 15744.859053 12170.900179 13095.116011 14572.450495 13653.874867 10612.453419 15972.931285 13768.287841 16457.001660 13782.235841 13418.261457 13418.261457 13418.261457 -377.541392 2594.020921 12650.027662 12383.910644 11521.635800 12253.453462 10895.549650 12694.585215 13064.207614 12320.439913 11354.939080 13474.400315 13181.487413 14550.236588 13744.744716 11944.074258 9072.193461 13055.146959 14212.303850 13401.987996 11832.283399 12230.555916 9832.006097 15162.406673 11942.502285 12961.182999 13038.893586 11571.578264 10645.337145 13083.470710 11099.770806 12473.650864 14640.548065 12558.873904 12867.692557 11132.170416 13032.977207 12975.226654 13317.984494 11093.286269 13529.044809 12208.916326 13738.758392 13939.113427 9709.263157 12231.091091 