<VTKFile type="PolyData">
<PolyData>
<Piece NumberOfPoints="8632" NumberOfVerts="8632" NumberOfLines="0" NumberOfStrips="0" NumberOfPolys="0">
<PointData>
<DataArray type="Float64" Name="Pressure" format="ascii">
 -0.400807 -0.400807 -0.400807 -0.410475 -0.519583 -0.805665 -1.141278 -1.543112 -2.020403 -2.586075 -3.257777 -4.057021 -5.008782 -6.141525 -7.487438 -9.082767 -10.968172 -13.189090 -15.796092 -18.845221 -22.398297 -26.523195 -31.294066 -36.791515 -43.102703 -50.321375 -58.547804 -67.888619 -78.456530 -90.369910 -103.752242 -118.731393 -135.438724 -154.008011 -174.574179 -197.271844 -222.233686 -249.588662 -279.460132 -311.963952 -347.206656 -385.283866 -426.279120 -470.263330 -517.295107 -567.422121 -620.683541 -677.113193 -736.742238 -799.598143 -865.692242 -934.977576 -1007.234425 -1081.794641 -1156.951768 -1229.334708 -1294.091850 -1344.339888 -1367.004057 -1335.097921 -1216.317105 -1036.904718 -885.643802 -770.926633 -630.714462 -461.424806 -347.397474 -314.717328 -308.852510 -266.520065 -173.699855 -102.277403 -105.346333 -136.311891 -120.849664 -46.862878 7.398892 1.724451 -1.722267 62.758404 167.676278 224.419477 224.402695 241.828265 353.853773 567.547525 815.578032 1076.777131 1398.488762 1834.533925 2427.614745 3173.410416 3978.450949 4736.929389 5403.338008 5980.434169 6499.956983 7001.074619 7486.695897 7971.626544 8470.317878 8952.607638 9385.414710 9762.667131 10078.215486 10309.178176 10442.192034 10493.564380 10500.788911 10500.788911 10500.788911 -0.400807 -0.400807 -0.400807 -0.410475 -0.519583 -0.805665 -1.141278 -1.543112 -2.020403 -2.586075 -3.257777 -4.057021 -5.008782 -6.141525 -7.487438 -9.082767 -10.968172 -13.189090 -15.796092 -18.845221 -22.398297 -26.523195 -31.294066 -36.791515 -43.102703 -50.321375 -58.547804 -67.888619 -78.456530 -90.369910 -103.752242 -118.731393 -135.438724 -154.008011 -174.574179 -197.271844 -222.233686 -249.588662 -279.460132 -311.963952 -347.206656 -385.283866 -426.279120 -470.263330 -517.295107 -567.422121 -620.683541 -677.113193 -736.742238 -799.598143 -865.692242 -934.977576 -1007.234425 -1081.794641 -1156.951768 -1229.334708 -1294.091850 -1344.339888 -1367.004057 -1335.097921 -1216.317105 -1036.904718 -885.643802 -770.926633 -630.714462 -461.424806 -347.397474 -314.717328 -308.852510 -266.520065 -173.699855 -102.277403 -105.346333 -136.311891 -120.849664 -46.862878 7.398892 1.724451 -1.722267 62.758404 167.676278 224.419477 224.402695 241.828265 353.853773 567.547525 815.578032 1076.777131 1398.488762 1834.533925 2427.614745 3173.410416 3978.450949 4736.929389 5403.338008 5980.434169 6499.956983 7001.074619 7486.695897 7971.626544 8470.317878 8952.607638 9385.414710 9762.667131 10078.215486 10309.178176 10442.192034 10493.564380 10500.788911 10500.788911 10500.788911 -0.400807 -0.400807 -0.400807 -0.410475 -0.519583 -0.805665 -1.141278 -1.543112 -2.020403 -2.586075 -3.257777 -4.057021 -5.008782 -6.141525 -7.487438 -9.082767 -10.968172 -13.189090 -15.796092 -18.845221 -22.398297 -26.523195 -31.294066 -36.791515 -43.102703 -50.321375 -58.547804 -67.888619 -78.456530 -90.369910 -103.752242 -118.731393 -135.438724 -154.008011 -174.574179 -197.271844 -222.233686 -249.588662 -279.460132 -311.963952 -347.206656 -385.283866 -426.279120 -470.263330 -517.295107 -567.422121 -620.683541 -677.113193 -736.742238 -799.598143 -865.692242 -934.977576 -1007.234425 -1081.794641 -1156.951768 -1229.334708 -1294.091850 -1344.339888 -1367.004057 -1335.097921 -1216.317105 -1036.904718 -885.643802 -770.926633 -630.714462 -461.424806 -347.397474 -314.717328 -308.852510 -266.520065 -173.699855 -102.277403 -105.346333 -136.311891 -120.849664 -46.862878 7.398892 1.724451 -1.722267 62.758404 167.676278 224.419477 224.402695 241.828265 353.853773 567.547525 815.578032 1076.777131 1398.488762 1834.533925 2427.614745 3173.410416 3978.450949 4736.929389 5403.338008 5980.434169 6499.956983 7001.074619 7486.695897 7971.626544 8470.317878 8952.607638 9385.414710 9762.667131 10078.215486 10309.178176 10442.192034 10493.564380 10500.788911 10500.788911 10500.788911 -0.398057 -0.398057 -0.398057 -0.407516 -0.515666 -0.799566 -1.135524 -1.539276 -2.017938 -2.584092 -3.255793 -4.054804 -5.006210 -6.138517 -7.483926 -9.078685 -10.963450 -13.183654 -15.789865 -18.838121 -22.390238 -26.514087 -31.283818 -36.780033 -43.089892 -50.307143 -58.532058 -67.871273 -78.437501 -90.349124 -103.729634 -118.706910 -135.412328 -153.979681 -174.543916 -197.239671 -222.199649 -249.552836 -279.422618 -311.924878 -347.166174 -385.242149 -426.236360 -470.219740 -517.250944 -567.377766 -620.639720 -677.071585 -736.707007 -799.579834 -865.717490 -935.112895 -1007.641310 -1082.839905 -1159.212678 -1233.397454 -1300.610498 -1355.498108 -1386.468982 -1361.603554 -1253.241283 -1045.179902 -866.344554 -776.336993 -647.773031 -437.496209 -316.690225 -304.807919 -322.329999 -286.585678 -166.382990 -75.643234 -95.358401 -153.322634 -143.646941 -40.376420 29.162431 0.728898 -28.770173 44.646149 184.978554 246.026963 219.687636 208.781672 319.497478 572.091205 860.899437 1162.937085 1507.247600 1929.773532 2511.534219 3284.592628 4112.677798 4877.622627 5541.905472 6108.478910 6612.378911 7118.686324 7585.477466 8046.176156 8542.626800 9025.582182 9450.141848 9820.658308 10138.592125 10375.679805 10495.768964 10526.484106 10530.553265 10530.553265 10530.553265 -0.368498 -0.368498 -0.368498 -0.375913 -0.468241 -0.718026 -1.061200 -1.498692 -1.993150 -2.564372 -3.236025 -4.032680 -4.980529 -6.108477 -7.448849 -9.037904 -10.916273 -13.129348 -15.727652 -18.767180 -22.309709 -26.423076 -31.181407 -36.665287 -42.961869 -50.164909 -58.374699 -67.697910 -78.247313 -90.141365 -103.503654 -118.462182 -135.148473 -153.696496 -174.241397 -196.918043 -221.859385 -249.194676 -279.047572 -311.534224 -346.761434 -384.825059 -425.808836 -469.783908 -516.809350 -566.934135 -620.201140 -676.654311 -736.351411 -799.388210 -865.948873 -936.418677 -1011.639783 -1093.369458 -1185.097138 -1280.920615 -1372.532728 -1476.919924 -1606.034512 -1778.688339 -1895.899825 -1153.672546 -648.806013 -931.227692 -988.336966 -131.868530 153.741922 -196.403984 -505.825064 -683.504179 -68.245942 420.000062 36.731809 -394.523966 -590.946080 97.007754 457.347891 -13.748701 -444.894420 -302.829223 524.305857 590.656659 172.659805 -238.803149 -241.493058 685.202233 1780.636689 3006.562717 3712.634821 3428.183828 3419.383865 4532.905884 5737.760010 6627.821273 7329.147336 7747.287125 7980.822689 8657.130108 8859.261237 8915.929969 9437.373893 9976.978053 10293.865027 10566.391582 10927.556653 11292.262394 11241.947716 10935.883086 10862.613658 10862.613658 10862.613658 -0.327402 -0.327402 -0.327402 -0.333096 -0.398876 -0.574458 -0.899768 -1.430111 -1.959335 -2.540067 -3.212906 -4.007336 -4.951318 -6.074384 -7.409062 -8.991653 -10.862764 -13.067745 -15.657069 -18.686681 -22.218317 -26.319775 -31.065150 -36.535008 -42.816498 -50.003380 -58.195971 -67.500983 -78.031249 -89.905310 -103.246868 -118.184061 -134.848582 -153.374598 -173.897485 -196.552368 -221.472484 -248.787388 -278.621049 -311.089927 -346.301112 -384.350722 -425.322745 -469.288653 -516.308237 -566.432382 -619.709215 -676.196694 -735.989013 -799.275093 -866.475305 -938.573987 -1017.952659 -1110.562052 -1232.182446 -1350.792746 -1459.800608 -1619.802180 -1871.289994 -2321.698904 -2355.106460 -634.672784 -108.857847 -1192.873143 -1474.628682 331.969376 863.129779 -48.031764 -823.123264 -1427.473939 20.248282 1283.943975 285.529363 -868.779903 -1569.945378 365.799214 1429.708931 32.475931 -1476.696029 -1309.879058 1577.425814 1495.404081 126.383290 -1118.315299 -1717.274172 1092.486934 5072.049219 15981.513556 16197.596769 6559.717272 2783.365278 6252.976852 7276.142949 9058.331407 10462.724122 10475.591309 8685.936467 12623.782128 10934.353840 9968.314810 11279.429010 12074.456417 12005.371777 12160.523395 12231.306348 13402.558840 12893.331147 11561.514285 11339.327453 11339.327453 11339.327453 -0.321756 -0.321756 -0.321756 -0.327202 -0.389557 -0.551997 -0.283854 -0.283854 -0.283854 -0.287378 -0.327485 -0.415349 -0.227473 -0.227473 -0.227473 -0.229033 -0.245559 -0.273583 -0.179183 -0.179183 -0.179183 -0.179769 -0.185561 -0.195106 -0.139655 -0.139655 -0.139655 -0.139825 -0.141449 -0.144358 -0.108049 -0.108049 -0.108049 -0.108065 -0.108190 -0.108736 -0.083123 -0.083123 -0.083123 -0.083089 -0.082740 -0.082500 -0.063638 -0.063638 -0.063638 -0.063594 -0.063146 -0.062701 -0.048506 -0.048506 -0.048506 -0.048464 -0.048047 -0.047599 -0.036815 -0.036815 -0.036815 -0.036780 -0.036429 -0.036041 -0.027827 -0.027827 -0.027827 -0.027799 -0.027516 -0.027200 -0.020948 -0.020948 -0.020948 -0.020925 -0.020702 -0.020452 -0.015705 -0.015705 -0.015705 -0.015688 -0.015514 -0.015319 -0.011727 -0.011727 -0.011727 -0.011713 -0.011580 -0.011429 -0.008721 -0.008721 -0.008721 -0.008711 -0.008608 -0.008493 -0.006459 -0.006459 -0.006459 -0.006452 -0.006373 -0.006285 -0.004765 -0.004765 -0.004765 -0.004759 -0.004700 -0.004633 -0.003501 -0.003501 -0.003501 -0.003496 -0.003452 -0.003401 -0.002562 -0.002562 -0.002562 -0.002558 -0.002525 -0.002487 -0.001867 -0.001867 -0.001867 -0.001864 -0.001839 -0.001811 -0.001355 -0.001355 -0.001355 -0.001353 -0.001334 -0.001313 -0.000980 -0.000980 -0.000980 -0.000978 -0.000964 -0.000949 -0.000705 -0.000705 -0.000705 -0.000704 -0.000694 -0.000682 -0.000506 -0.000506 -0.000506 -0.000505 -0.000497 -0.000489 -0.000361 -0.000361 -0.000361 -0.000361 -0.000355 -0.000349 -0.000257 -0.000257 -0.000257 -0.000256 -0.000252 -0.000248 -0.000182 -0.000182 -0.000182 -0.000182 -0.000179 -0.000175 -0.000128 -0.000128 -0.000128 -0.000128 -0.000126 -0.000124 -0.000090 -0.000090 -0.000090 -0.000090 -0.000089 -0.000087 -0.000063 -0.000063 -0.000063 -0.000063 -0.000062 -0.000061 -0.000044 -0.000044 -0.000044 -0.000044 -0.000043 -0.000042 -0.000031 -0.000031 -0.000031 -0.000031 -0.000030 -0.000029 -0.000021 -0.000021 -0.000021 -0.000021 -0.000021 -0.000020 -0.000015 -0.000015 -0.000015 -0.000015 -0.000014 -0.000014 -0.000010 -0.000010 -0.000010 -0.000010 -0.000010 -0.000010 -0.000007 -0.000007 -0.000007 -0.000007 -0.000007 -0.000007 -0.000005 -0.000005 -0.000005 -0.000005 -0.000005 -0.000004 -0.000003 -0.000003 -0.000003 -0.000003 -0.000003 -0.000003 -0.000002 -0.000002 -0.000002 -0.000002 -0.000002 -0.000002 -0.000001 -0.000001 -0.000001 -0.000001 -0.000001 -0.000001 -0.000001 -0.000001 -0.000001 -0.000001 -0.000001 -0.000001 -0.000001 -0.000001 -0.000001 -0.000001 -0.000001 -0.000001 -0.000000 -0.000000 -0.000000 -0.000000 -0.000000 -0.000000 -0.000000 -0.000000 -0.000000 -0.000000 -0.000000 -0.000000 -0.000000 -0.000000 -0.000000 -0.000000 -0.000000 -0.000000 -0.000000 -0.000000 -0.000000 -0.000000 -0.000000 -0.000000 -0.000000 -0.000000 -0.000000 -0.000000 -0.000000 -0.000000 -0.000000 -0.000000 -0.000000 -0.000000 -0.000000 -0.000000 -0.000000 -0.000000 -0.000000 -0.000000 -0.000000 -0.000000 -0.000000 -0.000000 -0.000000 -0.000000 -0.000000 -0.000000 -0.000000 -0.000000 -0.000000 -0.000000 -0.000000 -0.000000 -0.000000 -0.000000 -0.000000 -0.000000 -0.000000 -0.000000 -0.000000 -0.000000 -0.000000 -0.000000 -0.000000 -0.000000 -0.000000 -0.000000 -0.000000 -0.000000 -0.000000 -0.000000 -0.000000 -0.000000 -0.000000 -0.000000 -0.000000 -0.000000 -0.000000 -0.000000 -0.000000 -0.000000 -0.000000 -0.000000 -0.000000 -0.000000 -0.000000 -0.000000 -0.000000 -0.000000 -0.000000 -0.000000 -0.000000 -0.000000 -0.000000 -0.000000 -0.000000 -0.000000 -0.000000 -0.000000 -0.000000 -0.000000 -0.000000 -0.000000 -0.000000 -0.000000 -0.000000 -0.000000 -0.000000 -0.000000 -0.000000 -0.000000 -0.000000 -0.000000 -0.000000 -0.000000 -0.000000 -0.000000 -0.000000 -0.000000 -0.000000 -0.000000 -0.000000 -0.000000 -0.000000 -0.000000 -0.000000 -0.000000 -0.000000 -0.000000 -0.000000 -0.000000 -0.000000 -0.000000 -0.000000 -0.000000 -0.000000 -0.000000 -0.000000 -0.000000 -0.000000 -0.000000 -0.000000 -0.000000 -0.000000 -0.000000 -0.000000 -0.000000 -0.000000 -0.000000 -0.000000 -0.000000 -0.000000 -0.000000 -0.000000 -0.000000 -0.000000 -0.000000 -0.000000 -0.000000 -0.000000 -0.000000 -0.000000 -0.000000 -0.000000 -0.000000 -0.000000 -0.000000 -0.000000 -0.000000 -0.000000 -0.000000 -0.000000 -0.000000 -0.000000 -0.000000 -0.000000 -0.000000 -0.000000 -0.000000 -0.000000 -0.000000 -0.000000 -0.000000 -0.000000 -0.000000 -0.000000 -0.000000 -0.000000 -0.000000 -0.000000 -0.000000 -0.000000 -0.000000 -0.000000 -0.000000 -0.000000 -0.000000 -0.000000 -0.000000 -0.000000 -0.000000 -0.000000 -0.000000 -0.000000 -0.000000 -0.000000 -0.000000 -0.000000 -0.000000 -0.000000 -0.000000 -0.000000 -0.000000 -0.000000 -0.000000 -0.000000 -0.000000 -0.000000 -0.000000 -0.000000 -0.000000 -0.000000 -0.000000 -0.000000 -0.000000 -0.000000 -0.000000 -0.000000 -0.000000 -0.000000 -0.000000 -0.000000 -0.000000 -0.000000 -0.000000 -0.000000 -0.000000 -0.000000 -0.000000 -0.000000 -0.000000 -0.000000 -0.000000 -0.000000 -0.000000 -0.000000 -0.000000 -0.000000 -0.000000 -0.000000 -0.000000 -0.000000 -0.000000 -0.000000 -0.000000 -0.000000 -0.000000 -0.000000 -0.000000 -0.000000 -0.000000 -0.000000 -0.000000 -0.000000 -0.000000 -0.000000 -0.000000 -0.000000 -0.000000 -0.000000 -0.000000 -0.000000 -0.000000 -0.000000 -0.000000 -0.000000 -0.000000 -0.000000 -0.000000 -0.000000 -0.000000 -0.000000 -0.000000 -0.000000 -0.000000 -0.000000 -0.000000 -0.000000 -0.000000 -0.000000 -0.000000 -0.000000 -0.000000 -0.000000 -0.000000 -0.000000 -0.000000 -0.000000 -0.000000 -0.000000 -0.000000 -0.000000 -0.000000 -0.000000 -0.000000 -0.000000 -0.000000 -0.000000 -0.000000 -0.000000 -0.000000 -0.000000 -0.000000 -0.000000 -0.000000 -0.000000 -0.000000 -0.000000 -0.000000 -0.000000 -0.000000 -0.000000 -0.000000 -0.000000 -0.000000 -0.000000 -0.000000 -0.000000 -0.000000 -0.000000 -0.000000 -0.000000 -0.000000 -0.000000 -0.000000 -0.000000 -0.000000 -0.000000 -0.000000 -0.000000 -0.000000 -0.000000 -0.000000 -0.000000 -0.000000 -0.000000 -0.000000 -0.000000 -0.000000 -0.000000 -0.000000 -0.000000 -0.000000 -0.000000 -0.000000 -0.000000 -0.000000 -0.000000 -0.000000 -0.000000 -0.000000 -0.000000 -0.000000 -0.000000 -0.000000 -0.000000 -0.000000 -0.000000 -0.000000 -0.000000 -0.000000 -0.000000 -0.000000 -0.000000 -0.000000 -0.000000 -0.000000 -0.000000 -0.000000 -0.000000 -0.000000 -0.000000 -0.000000 -0.000000 -0.000000 -0.000000 -0.000000 -0.000000 -0.000000 -0.000000 -0.000000 -0.000000 -0.000000 -0.000000 -0.000000 -0.000000 -0.000000 -0.000000 -0.000000 -0.000000 -0.000000 -0.000000 -0.000000 -0.000000 -0.000000 -0.000000 -0.000000 -0.000000 -0.000000 -0.000000 -0.000000 -0.000000 -0.000000 -0.000000 -0.000000 -0.000000 -0.000000 -0.000000 -0.000000 -0.000000 -0.000000 -0.000000 -0.000000 -0.000000 -0.000000 -0.000000 -0.000000 -0.000000 -0.000000 -0.000000 -0.000000 -0.000000 -0.000000 -0.000000 -0.000000 -0.000000 -0.000000 -0.000000 -0.000000 -0.000000 -0.000000 -0.000000 -0.000000 -0.000000 -0.000000 -0.000000 -0.000000 -0.000000 -0.000000 -0.000000 -0.000000 -0.000000 -0.000000 -0.000000 -0.000000 -0.000000 -0.000000 -0.000000 -0.000000 -0.000000 -0.000000 -0.000000 -0.000000 -0.000000 -0.000000 -0.000000 -0.000000 -0.000000 -0.000000 -0.000000 -0.000000 -0.000000 -0.000000 -0.000000 -0.000000 -0.000000 -0.000000 -0.000000 -0.000000 -0.000000 -0.000000 -0.000000 -0.000000 -0.000000 -0.000000 -0.000000 -0.000000 -0.000000 -0.000000 -0.000000 -0.000000 -0.000000 -0.000000 -0.000000 -0.000000 -0.000000 -0.000000 -0.000000 -0.000000 -0.000000 -0.000000 -0.000000 -0.000000 -0.000000 -0.000000 -0.000000 -0.000000 -0.000000 -0.000000 -0.000000 -0.000000 -0.000000 -0.000000 -0.000000 -0.000000 -0.000000 -0.000000 -0.000000 -0.000000 -0.000000 -0.000000 -0.000000 -0.000000 -0.000000 -0.000000 -0.000000 -0.000000 -0.000000 -0.000000 -0.000000 -0.000000 -0.000000 -0.000000 -0.000000 -0.000000 -0.000000 -0.000000 -0.000000 -0.000000 -0.000000 -0.000000 -0.000000 -0.000000 -0.000000 -0.000000 -0.000000 -0.000000 -0.000000 -0.000000 -0.000000 -0.000000 -0.000000 -0.000000 -0.000000 -0.000000 -0.000000 -0.000000 -0.000000 -0.000000 -0.000000 -0.000000 -0.000000 -0.000000 -0.000000 -0.000000 -0.000000 -0.000000 -0.000000 -0.000000 -0.000000 -0.000000 -0.000000 -0.000000 -0.000000 -0.000000 -0.000000 -0.000000 -0.000000 -0.000000 -0.000000 -0.000000 -0.000000 -0.000000 -0.000000 -0.000000 -0.000000 -0.000000 -0.000000 -0.000000 -0.000000 -0.000000 -0.000000 -0.000000 -0.000000 -0.000000 -0.000000 -0.000000 -0.000000 -0.000000 -0.000000 -0.000000 -0.000000 -0.000000 -0.000000 -0.000000 -0.000000 -0.000000 -0.000000 -0.000000 -0.000000 -0.000000 -0.000000 -0.000000 -0.000000 -0.000000 -0.000000 -0.000000 -0.000000 -0.000000 -0.000000 -0.000000 -0.000000 -0.000000 -0.000000 -0.000000 -0.000000 -0.000000 -0.000000 -0.000000 -0.000000 -0.000000 -0.000000 -0.000000 -0.000000 -0.000000 -0.000000 -0.000000 -0.000000 -0.000000 -0.000000 -0.000000 -0.000000 -0.000000 -0.000000 -0.000000 -0.000000 -0.000000 -0.000000 -0.000000 -0.000000 -0.000000 -0.000000 -0.000000 -0.000000 -0.000000 -0.000000 -0.000000 -0.000000 -0.000000 -0.000000 -0.000000 -0.000000 -0.000000 -0.000000 -0.000000 -0.000000 -0.000000 -0.000000 -0.000000 -0.000000 -0.000000 -0.000000 -0.000000 -0.000000 -0.000000 -0.000000 -0.000000 -0.000000 -0.000000 -0.000000 -0.000000 -0.000000 -0.000000 -0.000000 -0.000000 -0.000000 -0.000000 -0.000000 -0.000000 -0.000000 -0.000000 -0.000000 -0.000000 -0.000000 -0.000000 -0.000000 -0.000000 -0.000000 -0.000000 -0.000000 -0.000000 -0.000000 -0.000000 -0.000000 -0.000000 -0.000000 -0.000000 -0.000000 -0.000000 -0.000000 -0.000000 -0.000000 -0.000000 -0.000000 -0.000000 -0.000000 -0.000000 -0.000000 -0.000000 -0.000000 -0.000000 -0.000000 -0.000000 -0.000000 -0.000000 -0.000000 -0.000000 -0.000000 -0.000000 -0.000000 -0.000000 -0.000000 -0.000000 -0.000000 -0.000000 -0.000000 -0.000000 -0.000000 -0.000000 -0.000000 -0.000000 -0.000000 -0.000000 -0.000000 -0.000000 -0.000000 -0.000000 -0.000000 -0.000000 -0.000000 -0.000000 -0.000000 -0.000000 -0.000000 -0.000000 -0.000000 -0.000000 -0.000000 -0.000000 -0.000000 -0.000000 -0.000000 -0.000000 -0.000000 -0.000000 -0.000000 -0.000000 -0.000000 -0.000000 -0.000000 -0.000000 -0.000000 -0.000000 -0.000000 -0.000000 -0.000000 -0.000000 -0.000000 -0.000000 -0.000000 -0.000000 -0.000000 -0.000000 -0.000000 -0.000000 -0.000000 -0.000000 -0.000000 -0.000000 -0.000000 -0.000000 -0.000000 -0.000000 -0.000000 -0.000000 -0.000000 -0.000000 -0.000000 -0.000000 -0.000000 -0.000000 -0.000000 -0.000000 -0.000000 -0.000000 -0.000000 -0.000000 -0.000000 -0.000000 -0.000000 -0.000000 -0.000000 -0.000000 -0.000000 -0.000000 -0.000000 -0.000000 -0.000000 -0.000000 -0.000000 -0.000000 -0.000000 -0.000000 -0.000000 -0.000000 -0.000000 -0.000000 -0.000000 -0.000000 -0.000000 -0.000000 -0.000000 -0.000000 -0.000000 -0.000000 -0.000000 -0.000000 -0.000000 -0.000000 -0.000000 -0.000000 -0.000000 -0.000000 -0.000000 -0.000000 -0.000000 -0.000000 -0.000000 -0.000000 -0.000000 -0.000000 -0.000000 -0.000000 -0.000000 -0.000000 -0.000000 -0.000000 -0.000000 -0.000000 -0.000000 -0.000000 -0.000000 -0.000000 -0.000000 -0.000000 -0.000000 -0.000000 -0.000000 -0.000000 -0.000000 -0.000000 -0.000000 -0.000000 -0.000000 -0.000000 -0.000000 -0.000000 -0.000000 -0.000000 -0.000000 -0.000000 -0.000000 -0.000000 -0.000000 -0.000000 -0.000000 -0.000000 -0.000000 -0.000000 -0.000000 -0.000000 -0.000000 -0.000000 -0.000000 -0.000000 -0.000000 -0.000000 -0.000000 -0.000000 -0.000000 -0.000000 -0.000000 -0.000000 -0.000000 -0.000000 -0.000001 -0.000001 -0.000001 -0.000001 -0.000001 -0.000001 -0.000001 -0.000001 -0.000001 -0.000001 -0.000001 -0.000001 -0.000001 -0.000001 -0.000001 -0.000001 -0.000001 -0.000001 -0.000002 -0.000002 -0.000002 -0.000002 -0.000002 -0.000002 -0.000002 -0.000002 -0.000002 -0.000002 -0.000003 -0.000003 -0.000003 -0.000003 -0.000003 -0.000003 -0.000004 -0.000005 -0.000004 -0.000004 -0.000004 -0.000004 -0.000005 -0.000008 -0.000005 -0.000005 -0.000005 -0.000005 -0.000007 -0.000012 -0.000020 -0.000030 -0.000041 -0.000052 -0.000063 -0.000074 -0.000082 -0.000084 -0.000075 -0.000045 0.000018 0.000136 0.000339 0.000669 0.001190 0.001991 0.003195 0.004978 0.007578 0.011321 0.016650 0.024161 0.034649 0.049169 0.069109 0.096286 0.133061 0.182482 0.248463 0.335993 0.451398 0.602650 0.799740 1.055127 1.384317 1.806705 2.347149 3.039558 3.936029 5.130670 6.824467 9.525858 14.799881 28.577360 76.688238 267.154816 1021.248808 2902.645728 7596.525466 8219.133515 1096.850139 22854.359402 1984.330858 -11320.247793 -1648.888663 21211.731780 18513.529799 -6943.238970 3560.212812 38564.041464 22905.786758 2249.736347 1926.392014 9161.841817 20035.612122 20215.621455 10133.492580 6744.049937 7273.248145 12174.851760 18500.898640 18052.612474 12501.205089 13309.641057 14299.317901 15180.407318 12022.717245 16734.192747 19738.666470 15609.736363 15915.897796 18958.571901 15851.499594 17919.422873 18077.858726 17142.148686 18145.381275 19212.234279 17960.667734 19174.491623 22011.704325 21189.399454 19774.297201 21210.601992 22610.646555 24577.411981 22098.833010 21810.224040 17929.206848 19654.498222 24126.403497 22628.973983 21813.573171 21813.573171 21813.573171 -0.000006 -0.000006 -0.000006 -0.000006 -0.000009 -0.000015 -0.000022 -0.000031 -0.000041 -0.000052 -0.000063 -0.000073 -0.000081 -0.000083 -0.000072 -0.000041 0.000026 0.000148 0.000357 0.000696 0.001230 0.002049 0.003279 0.005097 0.007744 0.011551 0.016967 0.024594 0.035237 0.049959 0.070165 0.097687 0.134907 0.184901 0.251612 0.340068 0.456641 0.609357 0.808272 1.065927 1.397937 1.823880 2.368982 3.067991 3.974920 5.187704 6.911919 9.640202 14.738921 26.675436 62.095249 180.706324 533.959102 1201.733976 2104.864745 2815.273705 2707.746034 4615.134087 3702.242889 768.240134 1238.239494 7007.298790 5852.076959 999.709203 3066.054940 9612.723994 10310.112952 4586.901381 4283.500798 5738.957638 8675.696906 10268.790718 9369.744836 7865.048463 8660.539056 10556.312235 12178.521969 12226.880322 11881.023363 13147.588426 14330.846483 14348.477469 13814.099763 15237.527351 15736.108596 15015.524665 15520.079978 16572.157234 16106.686898 17069.100392 17244.960685 17301.361978 18452.169323 19002.178146 17837.017162 19129.119813 20928.411897 19654.592309 18484.983197 19621.719038 20188.955673 23113.065015 23687.176805 22941.274357 20383.369467 19156.390855 20834.480511 20707.031770 20520.015129 20520.015129 20520.015129 -0.000007 -0.000007 -0.000007 -0.000007 -0.000009 -0.000016 -0.000023 -0.000032 -0.000041 -0.000052 -0.000063 -0.000073 -0.000080 -0.000081 -0.000069 -0.000035 0.000035 0.000163 0.000379 0.000729 0.001277 0.002117 0.003377 0.005234 0.007936 0.011819 0.017335 0.025096 0.035916 0.050873 0.071385 0.099305 0.137040 0.187694 0.255247 0.344770 0.462688 0.617090 0.818107 1.078374 1.413642 1.843719 2.394316 3.101327 4.021417 5.258147 7.026120 9.813908 14.824920 25.226244 49.626648 109.941060 245.379362 485.095398 803.226914 1121.443577 1343.327672 1598.063090 1770.871758 1662.012232 1827.269380 2486.187617 3133.914934 3221.798006 3654.152170 4755.318727 5585.270065 5714.524219 5919.824138 6535.320932 7384.528173 8238.946652 8773.860592 9128.439272 9671.551801 10344.721978 10847.953673 11138.210341 11495.045224 12094.006589 12715.143127 13142.544785 13447.118569 13875.001192 14341.011743 14740.262452 15215.972863 15753.076633 16196.897716 16678.640140 17156.836661 17745.060622 18428.318756 19015.315400 19432.431955 20130.306794 20876.542308 21232.436212 21455.288291 21908.893723 22126.920548 22582.954634 22629.230812 22220.949068 21541.556142 20674.278790 20245.232177 19962.857529 19909.497806 19909.497806 19909.497806 -0.000007 -0.000007 -0.000007 -0.000007 -0.000010 -0.000016 -0.000023 -0.000032 -0.000041 -0.000052 -0.000063 -0.000073 -0.000080 -0.000080 -0.000068 -0.000034 0.000037 0.000165 0.000383 0.000734 0.001286 0.002129 0.003394 0.005259 0.007971 0.011867 0.017402 0.025187 0.036039 0.051038 0.071605 0.099597 0.137424 0.188197 0.255901 0.345617 0.463777 0.618482 0.819877 1.080614 1.416470 1.847295 2.398896 3.107390 4.029972 5.271347 7.048169 9.849919 14.858202 25.047472 47.844430 99.894067 208.299463 394.278845 646.109913 913.412604 1144.519566 1344.771070 1505.550973 1594.563138 1775.116162 2197.138132 2725.098503 3141.283110 3661.192774 4423.818422 5155.103127 5632.248453 6101.234303 6737.760345 7486.128824 8225.480966 8808.479866 9274.493325 9783.744601 10318.210111 10751.678907 11085.596261 11465.871420 11966.106071 12482.935528 12905.940391 13270.994666 13690.462326 14157.956782 14629.033970 15123.207032 15629.736632 16109.831422 16600.357844 17137.275044 17760.036259 18443.705274 19081.506802 19675.759025 20345.820190 21009.848876 21523.689135 21935.199253 22292.077847 22517.170588 22571.581291 22399.716740 22060.407049 21560.775480 20920.116591 20310.209299 19910.327469 19832.975668 19832.975668 19832.975668 -0.000007 -0.000007 -0.000007 -0.000007 -0.000010 -0.000016 -0.000023 -0.000032 -0.000041 -0.000052 -0.000063 -0.000073 -0.000080 -0.000080 -0.000068 -0.000034 0.000037 0.000165 0.000383 0.000734 0.001286 0.002129 0.003394 0.005259 0.007971 0.011867 0.017402 0.025187 0.036039 0.051038 0.071605 0.099597 0.137424 0.188197 0.255901 0.345617 0.463777 0.618482 0.819877 1.080614 1.416470 1.847295 2.398896 3.107390 4.029972 5.271347 7.048169 9.849919 14.858202 25.047472 47.844430 99.894067 208.299463 394.278845 646.109913 913.412604 1144.519566 1344.771070 1505.550973 1594.563138 1775.116162 2197.138132 2725.098503 3141.283110 3661.192774 4423.818422 5155.103127 5632.248453 6101.234303 6737.760345 7486.128824 8225.480966 8808.479866 9274.493325 9783.744601 10318.210111 10751.678907 11085.596261 11465.871420 11966.106071 12482.935528 12905.940391 13270.994666 13690.462326 14157.956782 14629.033970 15123.207032 15629.736632 16109.831422 16600.357844 17137.275044 17760.036259 18443.705274 19081.506802 19675.759025 20345.820190 21009.848876 21523.689135 21935.199253 22292.077847 22517.170588 22571.581291 22399.716740 22060.407049 21560.775480 20920.116591 20310.209299 19910.327469 19832.975668 19832.975668 19832.975668 -0.000007 -0.000007 -0.000007 -0.000007 -0.000010 -0.000016 -0.000023 -0.000032 -0.000041 -0.000052 -0.000063 -0.000073 -0.000080 -0.000080 -0.000068 -0.000034 0.000037 0.000165 0.000383 0.000734 0.001286 0.002129 0.003394 0.005259 0.007971 0.011867 0.017402 0.025187 0.036039 0.051038 0.071605 0.099597 0.137424 0.188197 0.255901 0.345617 0.463777 0.618482 0.819877 1.080614 1.416470 1.847295 2.398896 3.107390 4.029972 5.271347 7.048169 9.849919 14.858202 25.047472 47.844430 99.894067 208.299463 394.278845 646.109913 913.412604 1144.519566 1344.771070 1505.550973 1594.563138 1775.116162 2197.138132 2725.098503 3141.283110 3661.192774 4423.818422 5155.103127 5632.248453 6101.234303 6737.760345 7486.128824 8225.480966 8808.479866 9274.493325 9783.744601 10318.210111 10751.678907 11085.596261 11465.871420 11966.106071 12482.935528 12905.940391 13270.994666 13690.462326 14157.956782 14629.033970 15123.207032 15629.736632 16109.831422 16600.357844 17137.275044 17760.036259 18443.705274 19081.506802 19675.759025 20345.820190 21009.848876 21523.689135 21935.199253 22292.077847 22517.170588 22571.581291 22399.716740 22060.407049 21560.775480 20920.116591 20310.209299 19910.327469 19832.975668 19832.975668 19832.975668 -1378.290430 -1493.740952 -1674.163707 -1956.432138 -2436.940168 -1994.370094 -133.548975 -227.835424 -1415.212051 -1240.540618 701.893630 735.694441 -204.112685 -1035.147781 -1385.587506 485.009858 1266.529367 56.814689 -1182.079587 -1491.130923 908.760287 1324.003124 -301.514187 -1952.112743 -896.487927 2158.763764 1332.490046 -112.012265 -1568.978166 -1636.286581 1976.099617 8969.123309 24034.581965 18230.213032 5394.376676 2328.615199 6777.258565 7548.213577 9772.642739 11324.312829 9932.867726 9113.792188 13636.613575 10490.618652 10374.369972 11993.619960 12535.450240 12570.551208 12504.916914 12614.553104 14030.711519 12846.958027 11539.159229 11399.620532 11399.620532 11399.620532 -2271.851038 -429.884049 -98.209071 15480.267690 17095.063450 14003.398614 13378.814285 12894.218816 16820.591869 13404.889755 15657.271462 15659.161469 14143.132280 14436.889580 12823.386859 13764.434618 14167.528461 12703.345849 14130.479914 12650.656722 15881.778860 16152.288135 12662.753742 11813.851342 13985.422851 13462.416208 13859.344041 12137.849727 11007.804166 13833.401068 10165.854005 13688.047225 11177.618570 14583.055505 10814.472154 13865.827839 15062.061707 12782.394319 14741.874045 14169.763640 11379.084245 15409.268061 10320.619356 15722.672981 13041.296894 14071.577916 11756.615349 14876.299068 11730.932661 14145.470459 14032.407710 14213.201346 11961.868830 11744.609457 11744.609457 11744.609457 124.960149 73.538731 12115.507037 3758.331854 14674.426209 14884.304711 14756.629488 13012.260744 13214.017709 13144.409459 16013.787252 13711.491921 14922.918034 14834.782865 14006.785093 14361.587265 8890.581548 14568.735471 16768.960614 13359.707348 11716.568873 13085.157923 14180.832807 12532.970844 11200.213820 11411.877640 14144.599714 12546.390648 12104.200143 11721.569249 11658.581922 10953.342306 13377.182137 12724.039862 11831.608488 9988.980888 11339.374564 9922.772038 9847.291235 11159.834334 10800.951089 13197.006096 10241.954641 14171.661986 10551.370688 11545.841133 12024.255753 15009.608339 9752.450528 15428.909178 15392.118201 14584.310452 12404.838297 12178.764106 12178.764106 12178.764106 -582.550762 -3412.662352 15594.773908 14295.595235 14894.405412 14232.550161 16799.621793 15280.705793 12970.293217 14862.636931 15536.587372 14022.741700 13958.486581 14106.480558 13889.551806 13708.988352 13883.245782 13598.328878 15255.102000 17212.553290 16044.178991 14984.592185 11730.521266 13328.751960 12118.274848 13283.480685 16458.697385 13925.157703 13009.703857 13624.767606 13070.755251 15905.238551 11314.732844 12855.980700 12893.100771 10896.738039 14016.055242 12737.163490 11519.173556 10693.8