<VTKFile type="PolyData">
<PolyData>
<Piece NumberOfPoints="8632" NumberOfVerts="8632" NumberOfLines="0" NumberOfStrips="0" NumberOfPolys="0">
<PointData>
<DataArray type="Float64" Name="Pressure" format="ascii">
 -0.013879 -0.013879 -0.013879 -0.014565 -0.022411 -0.043649 -0.070368 -0.105500 -0.151959 -0.213627 -0.295650 -0.404649 -0.549020 -0.739317 -0.988717 -1.313543 -1.733868 -2.274160 -2.964002 -3.838838 -4.940757 -6.319285 -8.032155 -10.146042 -12.737217 -15.892105 -19.707710 -24.291877 -29.763393 -36.251898 -43.897624 -52.850970 -63.271937 -75.329466 -89.200701 -105.070213 -123.129209 -143.574719 -166.608745 -192.437303 -221.269300 -253.315133 -288.784916 -327.886209 -370.821150 -417.782817 -468.950505 -524.483176 -584.509226 -649.108006 -718.271826 -791.820653 -869.202051 -949.028237 -1028.074799 -1099.970368 -1154.617071 -1176.644974 -1141.829464 -1022.659962 -835.809172 -662.381149 -521.798559 -365.368272 -213.916676 -151.954837 -171.941508 -193.300139 -152.887595 -74.660901 -45.474949 -63.614931 -46.722633 37.802950 116.531154 152.366984 211.071306 314.410354 381.392426 379.145409 371.453033 438.991247 592.454698 747.623730 852.598065 959.161048 1152.602799 1452.838191 1776.682795 2064.543650 2374.036364 2810.976190 3418.556552 4137.177936 4887.925872 5654.448930 6448.250966 7231.177331 7969.506979 8679.226972 9361.471779 9999.808696 10595.196019 11164.715508 11715.111676 12223.713066 12696.804469 13028.254966 13093.829727 13093.829727 13093.829727 -0.013879 -0.013879 -0.013879 -0.014565 -0.022411 -0.043649 -0.070368 -0.105500 -0.151959 -0.213627 -0.295650 -0.404649 -0.549020 -0.739317 -0.988717 -1.313543 -1.733868 -2.274160 -2.964002 -3.838838 -4.940757 -6.319285 -8.032155 -10.146042 -12.737217 -15.892105 -19.707710 -24.291877 -29.763393 -36.251898 -43.897624 -52.850970 -63.271937 -75.329466 -89.200701 -105.070213 -123.129209 -143.574719 -166.608745 -192.437303 -221.269300 -253.315133 -288.784916 -327.886209 -370.821150 -417.782817 -468.950505 -524.483176 -584.509226 -649.108006 -718.271826 -791.820653 -869.202051 -949.028237 -1028.074799 -1099.970368 -1154.617071 -1176.644974 -1141.829464 -1022.659962 -835.809172 -662.381149 -521.798559 -365.368272 -213.916676 -151.954837 -171.941508 -193.300139 -152.887595 -74.660901 -45.474949 -63.614931 -46.722633 37.802950 116.531154 152.366984 211.071306 314.410354 381.392426 379.145409 371.453033 438.991247 592.454698 747.623730 852.598065 959.161048 1152.602799 1452.838191 1776.682795 2064.543650 2374.036364 2810.976190 3418.556552 4137.177936 4887.925872 5654.448930 6448.250966 7231.177331 7969.506979 8679.226972 9361.471779 9999.808696 10595.196019 11164.715508 11715.111676 12223.713066 12696.804469 13028.254966 13093.829727 13093.829727 13093.829727 -0.013879 -0.013879 -0.013879 -0.014565 -0.022411 -0.043649 -0.070368 -0.105500 -0.151959 -0.213627 -0.295650 -0.404649 -0.549020 -0.739317 -0.988717 -1.313543 -1.733868 -2.274160 -2.964002 -3.838838 -4.940757 -6.319285 -8.032155 -10.146042 -12.737217 -15.892105 -19.707710 -24.291877 -29.763393 -36.251898 -43.897624 -52.850970 -63.271937 -75.329466 -89.200701 -105.070213 -123.129209 -143.574719 -166.608745 -192.437303 -221.269300 -253.315133 -288.784916 -327.886209 -370.821150 -417.782817 -468.950505 -524.483176 -584.509226 -649.108006 -718.271826 -791.820653 -869.202051 -949.028237 -1028.074799 -1099.970368 -1154.617071 -1176.644974 -1141.829464 -1022.659962 -835.809172 -662.381149 -521.798559 -365.368272 -213.916676 -151.954837 -171.941508 -193.300139 -152.887595 -74.660901 -45.474949 -63.614931 -46.722633 37.802950 116.531154 152.366984 211.071306 314.410354 381.392426 379.145409 371.453033 438.991247 592.454698 747.623730 852.598065 959.161048 1152.602799 1452.838191 1776.682795 2064.543650 2374.036364 2810.976190 3418.556552 4137.177936 4887.925872 5654.448930 6448.250966 7231.177331 7969.506979 8679.226972 9361.471779 9999.808696 10595.196019 11164.715508 11715.111676 12223.713066 12696.804469 13028.254966 13093.829727 13093.829727 13093.829727 -0.013742 -0.013742 -0.013742 -0.014412 -0.022176 -0.043228 -0.069931 -0.105158 -0.151669 -0.213314 -0.295264 -0.404154 -0.548380 -0.738494 -0.987666 -1.312212 -1.732193 -2.272071 -2.961415 -3.835659 -4.936881 -6.314596 -8.026527 -10.139337 -12.729291 -15.882809 -19.696888 -24.279375 -29.749054 -36.235572 -43.879165 -52.830239 -63.248807 -75.303818 -89.172426 -105.039214 -123.095399 -143.538023 -166.569099 -192.394660 -221.223632 -253.266446 -288.733260 -327.831716 -370.764108 -417.723840 -468.890958 -524.426208 -584.462355 -649.089547 -718.326854 -792.060157 -869.894827 -950.794001 -1031.984515 -1107.402615 -1167.290120 -1198.882805 -1177.476071 -1056.888290 -827.576052 -658.161476 -530.590786 -369.601819 -174.053498 -123.938767 -171.251260 -215.880197 -169.163917 -55.353967 -28.533707 -77.108560 -74.153025 37.635537 130.538849 140.047580 188.921470 324.288392 404.190513 378.226543 339.483209 399.685589 584.473589 758.510196 842.079664 913.331420 1092.185095 1419.293041 1760.420981 2020.041241 2283.830836 2699.059985 3338.093506 4110.064395 4894.996285 5667.475461 6484.207761 7289.261718 8017.379107 8725.110658 9418.056703 10052.748793 10626.075056 11162.482489 11709.234715 12218.412297 12688.199446 13022.017476 13088.082671 13088.082671 13088.082671 -0.012289 -0.012289 -0.012289 -0.012807 -0.019350 -0.037579 -0.064314 -0.101581 -0.148760 -0.210196 -0.291419 -0.399213 -0.541997 -0.730285 -0.977181 -1.298924 -1.715482 -2.251216 -2.935589 -3.803923 -4.898184 -6.267775 -7.970314 -10.072371 -12.650129 -15.789945 -19.588778 -24.154458 -29.605782 -36.072430 -43.694697 -52.623066 -63.017642 -75.047476 -88.889825 -104.729378 -122.757459 -143.171222 -166.172806 -191.968398 -220.767133 -252.779740 -288.216846 -327.286891 -370.193685 -417.133833 -468.294658 -523.854258 -583.987800 -648.890306 -718.841410 -794.373713 -876.683325 -968.435507 -1075.445103 -1192.312699 -1306.996725 -1443.695385 -1620.545739 -1484.860943 -617.060873 -444.342580 -744.770906 -520.421530 374.318844 302.760538 -175.369648 -578.501591 -503.216916 328.966029 288.439891 -272.214776 -597.369634 90.230356 489.456798 -58.649750 -270.388248 531.862122 802.039772 385.440412 -85.972549 -226.258831 532.748335 1031.424500 753.473275 329.352081 221.645371 1043.434332 1731.645929 1564.944349 1180.715457 1245.686656 2292.790272 3862.127754 5136.353067 5880.616018 6977.354308 8157.247429 8634.809895 9224.258176 10085.493094 10704.000177 10894.566375 10840.120442 11340.748157 12067.268104 12589.254016 12951.275089 13018.577011 13018.577011 13018.577011 -0.010340 -0.010340 -0.010340 -0.010730 -0.015284 -0.027770 -0.052411 -0.095927 -0.145102 -0.206561 -0.287045 -0.393631 -0.534796 -0.721023 -0.965349 -1.283921 -1.696604 -2.227645 -2.906386 -3.768021 -4.854388 -6.214762 -7.906641 -9.996487 -12.560391 -15.684639 -19.466145 -24.012719 -29.443172 -35.887224 -43.485236 -52.387782 -62.755070 -74.756267 -88.568750 -104.377328 -122.373447 -142.754386 -165.722428 -191.483936 -220.248290 -252.226580 -287.630026 -326.668124 -369.546794 -416.467233 -467.627429 -523.231189 -583.516873 -648.836350 -719.860732 -798.105657 -887.268705 -996.689315 -1151.287020 -1313.434100 -1475.647972 -1730.569769 -2232.157042 -2180.988738 -436.354609 -99.389041 -1129.497749 -897.976236 1017.936950 907.086630 -190.565291 -1246.281029 -1198.946376 1007.222855 928.407088 -704.613789 -1806.641836 238.566155 1521.688980 -602.576429 -1592.781996 1192.381778 1884.299883 424.778019 -884.733636 -1774.579334 649.449833 2037.267301 725.066395 -638.933643 -1779.560752 641.138016 2468.148783 1121.615901 -376.938672 -1810.270750 119.573933 3445.909607 6691.646385 5843.678268 7143.190458 10959.795589 9386.991409 8772.568360 11387.540973 11516.851811 11966.703668 8391.957557 10195.597122 11716.647029 12098.854947 12899.028872 12915.719473 12915.719473 12915.719473 -0.010084 -0.010084 -0.010084 -0.010455 -0.014751 -0.026253 -0.008441 -0.008441 -0.008441 -0.008677 -0.011387 -0.017419 -0.006152 -0.006152 -0.006152 -0.006256 -0.007347 -0.009197 -0.004351 -0.004351 -0.004351 -0.004389 -0.004768 -0.005386 -0.003018 -0.003018 -0.003018 -0.003030 -0.003144 -0.003338 -0.002066 -0.002066 -0.002066 -0.002068 -0.002091 -0.002140 -0.001400 -0.001400 -0.001400 -0.001400 -0.001394 -0.001397 -0.000941 -0.000941 -0.000941 -0.000940 -0.000929 -0.000920 -0.000628 -0.000628 -0.000628 -0.000627 -0.000617 -0.000606 -0.000417 -0.000417 -0.000417 -0.000416 -0.000408 -0.000399 -0.000275 -0.000275 -0.000275 -0.000274 -0.000268 -0.000262 -0.000180 -0.000180 -0.000180 -0.000179 -0.000175 -0.000171 -0.000117 -0.000117 -0.000117 -0.000117 -0.000114 -0.000111 -0.000076 -0.000076 -0.000076 -0.000076 -0.000074 -0.000072 -0.000049 -0.000049 -0.000049 -0.000049 -0.000047 -0.000046 -0.000031 -0.000031 -0.000031 -0.000031 -0.000030 -0.000029 -0.000020 -0.000020 -0.000020 -0.000020 -0.000019 -0.000019 -0.000013 -0.000013 -0.000013 -0.000012 -0.000012 -0.000012 -0.000008 -0.000008 -0.000008 -0.000008 -0.000008 -0.000007 -0.000005 -0.000005 -0.000005 -0.000005 -0.000005 -0.000005 -0.000003 -0.000003 -0.000003 -0.000003 -0.000003 -0.000003 -0.000002 -0.000002 -0.000002 -0.000002 -0.000002 -0.000002 -0.000001 -0.000001 -0.000001 -0.000001 -0.000001 -0.000001 -0.000001 -0.000001 -0.000001 -0.000001 -0.000001 -0.000001 -0.000000 -0.000000 -0.000000 -0.000000 -0.000000 -0.000000 -0.000000 -0.000000 -0.000000 -0.000000 -0.000000 -0.000000 -0.000000 -0.000000 -0.000000 -0.000000 -0.000000 -0.000000 -0.000000 -0.000000 -0.000000 -0.000000 -0.000000 -0.000000 -0.000000 -0.000000 -0.000000 -0.000000 -0.000000 -0.000000 -0.000000 -0.000000 -0.000000 -0.000000 -0.000000 -0.000000 -0.000000 -0.000000 -0.000000 -0.000000 -0.000000 -0.000000 -0.000000 -0.000000 -0.000000 -0.000000 -0.000000 -0.000000 -0.000000 -0.000000 -0.000000 -0.000000 -0.000000 -0.000000 -0.000000 -0.000000 -0.000000 -0.000000 -0.000000 -0.000000 -0.000000 -0.000000 -0.000000 -0.000000 -0.000000 -0.000000 -0.000000 -0.000000 -0.000000 -0.000000 -0.000000 -0.000000 -0.000000 -0.000000 -0.000000 -0.000000 -0.000000 -0.000000 0.000000 0.000000 0.000000 -0.000000 0.000000 -0.000000 0.000000 0.000000 0.000000 0.000000 0.000000 0.000000 0.000000 0.000000 0.000000 -0.000000 -0.000000 0.000000 -0.000000 -0.000000 -0.000000 -0.000000 -0.000000 -0.000000 -0.000000 -0.000000 -0.000000 -0.000000 -0.000000 -0.000000 -0.000000 -0.000000 -0.000000 -0.000000 -0.000000 -0.000000 -0.000000 -0.000000 -0.000000 -0.000000 -0.000000 -0.000000 -0.000000 -0.000000 -0.000000 -0.000000 -0.000000 -0.000000 -0.000000 -0.000000 -0.000000 -0.000000 -0.000000 -0.000000 -0.000000 -0.000000 -0.000000 -0.000000 -0.000000 -0.000000 -0.000000 -0.000000 -0.000000 -0.000000 -0.000000 -0.000000 -0.000000 -0.000000 -0.000000 -0.000000 -0.000000 -0.000000 -0.000000 -0.000000 -0.000000 -0.000000 -0.000000 -0.000000 -0.000000 -0.000000 -0.000000 -0.000000 -0.000000 -0.000000 -0.000000 -0.000000 -0.000000 -0.000000 -0.000000 -0.000000 -0.000000 -0.000000 -0.000000 -0.000000 -0.000000 -0.000000 -0.000000 -0.000000 -0.000000 -0.000000 -0.000000 -0.000000 -0.000000 -0.000000 -0.000000 -0.000000 -0.000000 -0.000000 -0.000000 -0.000000 -0.000000 -0.000000 -0.000000 -0.000000 -0.000000 -0.000000 -0.000000 -0.000000 -0.000000 -0.000000 -0.000000 -0.000000 -0.000000 -0.000000 -0.000000 -0.000000 -0.000000 -0.000000 -0.000000 -0.000000 -0.000000 -0.000000 -0.000000 -0.000000 -0.000000 -0.000000 -0.000000 -0.000000 -0.000000 -0.000000 -0.000000 -0.000000 -0.000000 -0.000000 -0.000000 -0.000000 -0.000000 -0.000000 -0.000000 -0.000000 -0.000000 -0.000000 -0.000000 -0.000000 -0.000000 -0.000000 -0.000000 -0.000000 -0.000000 -0.000000 -0.000000 -0.000000 -0.000000 -0.000000 -0.000000 -0.000000 -0.000000 -0.000000 -0.000000 -0.000000 -0.000000 -0.000000 -0.000000 -0.000000 -0.000000 -0.000000 -0.000000 -0.000000 -0.000000 -0.000000 -0.000000 -0.000000 -0.000000 -0.000000 -0.000000 -0.000000 -0.000000 -0.000000 -0.000000 -0.000000 -0.000000 -0.000000 -0.000000 -0.000000 -0.000000 -0.000000 -0.000000 -0.000000 -0.000000 -0.000000 -0.000000 -0.000000 -0.000000 -0.000000 -0.000000 -0.000000 -0.000000 -0.000000 -0.000000 -0.000000 -0.000000 -0.000000 -0.000000 -0.000000 -0.000000 -0.000000 -0.000000 -0.000000 -0.000000 -0.000000 -0.000000 -0.000000 -0.000000 -0.000000 -0.000000 -0.000000 -0.000000 -0.000000 -0.000000 -0.000000 -0.000000 -0.000000 -0.000000 -0.000000 -0.000000 -0.000000 -0.000000 -0.000000 -0.000000 -0.000000 -0.000000 -0.000000 -0.000000 -0.000000 -0.000000 -0.000000 -0.000000 -0.000000 -0.000000 -0.000000 -0.000000 -0.000000 -0.000000 -0.000000 -0.000000 -0.000000 -0.000000 -0.000000 -0.000000 -0.000000 -0.000000 -0.000000 -0.000000 -0.000000 -0.000000 -0.000000 -0.000000 -0.000000 -0.000000 -0.000000 -0.000000 -0.000000 -0.000000 -0.000000 -0.000000 -0.000000 -0.000000 -0.000000 -0.000000 -0.000000 -0.000000 -0.000000 -0.000000 -0.000000 -0.000000 -0.000000 -0.000000 -0.000000 -0.000000 -0.000000 -0.000000 -0.000000 -0.000000 -0.000000 -0.000000 -0.000000 -0.000000 -0.000000 -0.000000 -0.000000 -0.000000 -0.000000 -0.000000 -0.000000 -0.000000 -0.000000 -0.000000 -0.000000 -0.000000 -0.000000 -0.000000 -0.000000 -0.000000 -0.000000 -0.000000 -0.000000 -0.000000 -0.000000 -0.000000 -0.000000 -0.000000 -0.000000 -0.000000 -0.000000 -0.000000 -0.000000 -0.000000 -0.000000 -0.000000 -0.000000 -0.000000 -0.000000 -0.000000 -0.000000 -0.000000 -0.000000 -0.000000 -0.000000 -0.000000 -0.000000 -0.000000 -0.000000 -0.000000 -0.000000 -0.000000 -0.000000 -0.000000 -0.000000 -0.000000 -0.000000 -0.000000 -0.000000 -0.000000 -0.000000 -0.000000 -0.000000 -0.000000 -0.000000 -0.000000 -0.000000 -0.000000 -0.000000 -0.000000 -0.000000 -0.000000 -0.000000 -0.000000 -0.000000 -0.000000 -0.000000 -0.000000 -0.000000 -0.000000 -0.000000 -0.000000 -0.000000 -0.000000 -0.000000 -0.000000 -0.000000 -0.000000 -0.000000 -0.000000 -0.000000 -0.000000 -0.000000 -0.000000 -0.000000 -0.000000 -0.000000 -0.000000 -0.000000 -0.000000 -0.000000 -0.000000 -0.000000 -0.000000 -0.000000 -0.000000 -0.000000 -0.000000 -0.000000 -0.000000 -0.000000 -0.000000 -0.000000 -0.000000 -0.000000 -0.000000 -0.000000 -0.000000 -0.000000 -0.000000 -0.000000 -0.000000 -0.000000 -0.000000 -0.000000 -0.000000 -0.000000 -0.000000 -0.000000 -0.000000 -0.000000 -0.000000 -0.000000 -0.000000 -0.000000 -0.000000 -0.000000 -0.000000 -0.000000 -0.000000 -0.000000 -0.000000 -0.000000 -0.000000 -0.000000 -0.000000 -0.000000 -0.000000 -0.000000 -0.000000 -0.000000 -0.000000 -0.000000 -0.000000 -0.000000 -0.000000 -0.000000 -0.000000 -0.000000 -0.000000 -0.000000 -0.000000 -0.000000 -0.000000 -0.000000 -0.000000 -0.000000 -0.000000 -0.000000 -0.000000 -0.000000 -0.000000 -0.000000 -0.000000 -0.000000 -0.000000 -0.000000 -0.000000 -0.000000 -0.000000 -0.000000 -0.000000 -0.000000 -0.000000 -0.000000 -0.000000 -0.000000 -0.000000 -0.000000 -0.000000 -0.000000 -0.000000 -0.000000 -0.000000 -0.000000 -0.000000 -0.000000 -0.000000 -0.000000 -0.000000 -0.000000 -0.000000 -0.000000 -0.000000 -0.000000 -0.000000 -0.000000 -0.000000 -0.000000 -0.000000 -0.000000 -0.000000 -0.000000 -0.000000 -0.000000 -0.000000 -0.000000 -0.000000 -0.000000 -0.000000 -0.000000 -0.000000 -0.000000 -0.000000 -0.000000 -0.000000 -0.000000 -0.000000 -0.000000 -0.000000 -0.000000 -0.000000 -0.000000 -0.000000 -0.000000 -0.000000 -0.000000 -0.000000 -0.000000 -0.000000 -0.000000 -0.000000 -0.000000 -0.000000 -0.000000 -0.000000 -0.000000 -0.000000 -0.000000 -0.000000 -0.000000 -0.000000 -0.000000 -0.000000 -0.000000 -0.000000 -0.000000 -0.000000 -0.000000 -0.000000 -0.000000 -0.000000 -0.000000 -0.000000 -0.000000 -0.000000 -0.000000 -0.000000 -0.000000 -0.000000 -0.000000 -0.000000 -0.000000 -0.000000 -0.000000 -0.000000 -0.000000 -0.000000 -0.000000 -0.000000 -0.000000 -0.000000 -0.000000 -0.000000 -0.000000 -0.000000 -0.000000 -0.000000 -0.000000 -0.000000 -0.000000 -0.000000 -0.000000 -0.000000 -0.000000 -0.000000 -0.000000 -0.000000 -0.000000 -0.000000 -0.000000 -0.000000 -0.000000 -0.000000 -0.000000 -0.000000 -0.000000 -0.000000 -0.000000 -0.000000 -0.000000 -0.000000 -0.000000 -0.000000 -0.000000 -0.000000 -0.000000 -0.000000 -0.000000 -0.000000 -0.000000 -0.000000 -0.000000 -0.000000 -0.000000 -0.000000 -0.000000 -0.000000 -0.000000 -0.000000 -0.000000 -0.000000 -0.000000 -0.000000 -0.000000 -0.000000 -0.000000 -0.000000 -0.000000 -0.000000 -0.000000 -0.000000 -0.000000 -0.000000 -0.000000 -0.000000 -0.000000 -0.000000 -0.000000 -0.000000 -0.000000 -0.000000 -0.000000 -0.000000 -0.000000 -0.000000 -0.000000 -0.000000 -0.000000 -0.000000 -0.000000 -0.000000 -0.000000 -0.000000 -0.000000 -0.000000 -0.000000 -0.000000 -0.000000 -0.000000 -0.000000 -0.000000 -0.000000 -0.000000 -0.000000 -0.000000 -0.000000 -0.000000 -0.000000 -0.000000 -0.000000 -0.000000 -0.000000 -0.000000 -0.000000 -0.000000 -0.000000 -0.000000 -0.000000 -0.000000 -0.000000 -0.000000 -0.000000 -0.000000 -0.000000 -0.000000 -0.000000 -0.000000 -0.000000 -0.000000 -0.000000 -0.000000 -0.000000 -0.000000 -0.000000 -0.000000 -0.000000 -0.000000 -0.000000 -0.000000 -0.000000 -0.000000 -0.000000 -0.000000 -0.000000 -0.000000 -0.000000 -0.000000 -0.000000 -0.000000 -0.000000 -0.000000 -0.000000 -0.000000 -0.000000 -0.000000 -0.000000 -0.000000 -0.000000 -0.000000 -0.000000 -0.000000 -0.000000 -0.000000 -0.000000 -0.000000 -0.000000 -0.000000 -0.000000 -0.000000 -0.000000 -0.000000 -0.000000 -0.000000 -0.000000 -0.000000 -0.000000 -0.000000 -0.000000 0.000000 -0.000000 -0.000000 -0.000000 -0.000000 -0.000000 -0.000000 -0.000000 -0.000000 -0.000000 -0.000000 -0.000000 -0.000000 -0.000000 -0.000000 -0.000000 -0.000000 -0.000000 -0.000000 -0.000000 -0.000000 -0.000000 -0.000000 -0.000000 -0.000000 -0.000000 -0.000000 -0.000000 -0.000000 -0.000000 -0.000000 -0.000000 -0.000000 -0.000000 -0.000000 -0.000000 -0.000000 -0.000000 -0.000000 -0.000000 -0.000000 -0.000000 -0.000000 -0.000000 -0.000000 -0.000000 -0.000000 -0.000000 -0.000000 -0.000000 -0.000000 -0.000000 -0.000000 -0.000000 -0.000000 -0.000000 -0.000000 -0.000000 -0.000000 -0.000000 -0.000000 -0.000000 -0.000000 -0.000000 -0.000000 -0.000000 -0.000000 -0.000000 -0.000000 -0.000000 -0.000000 -0.000000 -0.000000 -0.000000 -0.000000 -0.000000 -0.000000 -0.000000 -0.000000 -0.000000 -0.000000 -0.000000 -0.000000 -0.000000 -0.000000 -0.000000 -0.000000 -0.000000 -0.000000 -0.000000 -0.000000 -0.000000 -0.000000 -0.000000 -0.000000 -0.000000 -0.000000 -0.000000 -0.000000 -0.000000 -0.000000 -0.000000 -0.000000 -0.000000 -0.000000 -0.000000 -0.000000 -0.000000 -0.000000 -0.000000 -0.000000 -0.000000 -0.000000 -0.000000 -0.000000 -0.000000 -0.000000 -0.000000 -0.000000 -0.000000 -0.000000 -0.000000 -0.000000 -0.000000 -0.000000 -0.000000 -0.000000 -0.000000 -0.000000 -0.000000 -0.000000 -0.000000 -0.000000 -0.000000 -0.000000 -0.000000 -0.000000 -0.000000 -0.000000 -0.000000 -0.000000 -0.000000 -0.000000 -0.000000 -0.000000 -0.000000 -0.000000 -0.000000 -0.000000 -0.000000 -0.000000 -0.000000 -0.000000 -0.000000 -0.000000 -0.000000 -0.000000 -0.000000 -0.000000 -0.000000 -0.000000 -0.000000 -0.000000 -0.000000 -0.000000 -0.000000 -0.000000 -0.000000 -0.000000 -0.000000 -0.000000 -0.000000 -0.000000 -0.000000 -0.000000 -0.000000 -0.000000 -0.000000 -0.000000 -0.000000 -0.000000 -0.000000 -0.000000 -0.000000 -0.000000 -0.000000 -0.000000 -0.000000 -0.000000 -0.000000 -0.000000 -0.000000 -0.000000 -0.000000 -0.000000 -0.000000 -0.000000 -0.000000 -0.000000 -0.000000 -0.000000 -0.000000 -0.000000 -0.000000 -0.000000 -0.000000 -0.000000 -0.000000 -0.000000 -0.000000 -0.000000 -0.000000 -0.000000 -0.000000 -0.000000 -0.000000 -0.000000 -0.000000 -0.000000 -0.000000 -0.000000 -0.000000 -0.000000 -0.000000 -0.000000 -0.000000 -0.000000 -0.000000 -0.000000 -0.000000 -0.000000 -0.000000 -0.000000 -0.000000 -0.000000 -0.000000 -0.000000 -0.000000 -0.000000 -0.000000 -0.000000 -0.000000 -0.000000 -0.000000 -0.000000 -0.000000 -0.000001 -0.000001 -0.000002 -0.000003 -0.000004 -0.000006 -0.000009 -0.000014 -0.000022 -0.000033 -0.000049 -0.000073 -0.000106 -0.000155 -0.000223 -0.000319 -0.000451 -0.000633 -0.000877 -0.001202 -0.001629 -0.002177 -0.002867 -0.003713 -0.004715 -0.005849 -0.007044 -0.008156 -0.008928 -0.008925 -0.007452 -0.003431 0.004755 0.019488 0.044209 0.083800 0.145094 0.237515 0.373903 0.571537 0.853413 1.249794 1.800092 2.555097 3.579606 4.955450 6.784940 9.194708 12.339909 16.408699 21.626887 28.262632 36.631012 47.098338 60.086051 76.074132 95.603911 119.280140 147.771929 181.811709 222.190747 269.749350 325.360615 389.910490 464.287084 549.413110 646.391149 756.881868 883.882067 1033.040701 1214.315915 1442.471503 1731.121590 2065.632567 2340.812743 1949.442561 1348.859472 2210.809287 3007.988013 3021.485614 3492.296827 4469.992512 5141.854761 5245.848361 6461.397908 7997.910657 7460.913177 9475.970941 8836.453725 9280.052720 10853.947521 10977.548231 11968.263004 11380.224996 12694.913221 12663.878147 12526.090058 13823.805155 14146.545334 14146.545334 14146.545334 -0.000000 -0.000000 -0.000000 -0.000000 -0.000000 -0.000000 -0.000000 -0.000000 -0.000000 -0.000000 -0.000001 -0.000001 -0.000002 -0.000003 -0.000004 -0.000006 -0.000010 -0.000015 -0.000022 -0.000034 -0.000050 -0.000074 -0.000109 -0.000158 -0.000227 -0.000324 -0.000459 -0.000642 -0.000889 -0.001217 -0.001647 -0.002198 -0.002890 -0.003736 -0.004735 -0.005859 -0.007034 -0.008110 -0.008820 -0.008717 -0.007088 -0.002834 0.005697 0.020929 0.046359 0.086944 0.149610 0.243902 0.382811 0.583802 0.870100 1.272245 1.829976 2.594471 3.630973 5.021820 6.869891 9.302438 12.475276 16.577247 21.834852 28.516920 36.939157 47.468438 60.526687 76.594277 96.212820 119.987189 148.586345 182.742094 223.244326 270.930956 326.671690 391.348577 465.845909 551.080134 648.128539 758.547635 884.985099 1032.118950 1207.648921 1422.159150 1684.471164 1985.550495 2259.056388 2414.123357 2563.296741 2990.675718 3490.103284 4022.164467 4425.215901 5140.869351 5705.089579 6215.941195 7276.392501 8363.959251 8927.202890 10220.042424 10110.405304 10584.177958 11608.845782 12035.867043 12471.402141 11816.351332 12266.341874 13421.696059 13483.303549 13525.645716 13614.262463 13614.262463 13614.262463 -0.000000 -0.000000 -0.000000 -0.000000 -0.000000 -0.000000 -0.000000 -0.000000 -0.000000 -0.000000 -0.000001 -0.000001 -0.000002 -0.000003 -0.000004 -0.000007 -0.000010 -0.000015 -0.000023 -0.000035 -0.000051 -0.000076 -0.000111 -0.000161 -0.000232 -0.000331 -0.000467 -0.000652 -0.000902 -0.001234 -0.001667 -0.002222 -0.002916 -0.003763 -0.004758 -0.005870 -0.007021 -0.008053 -0.008690 -0.008470 -0.006660 -0.002133 0.006799 0.022610 0.048863 0.090599 0.154854 0.251311 0.393133 0.598003 0.889405 1.298198 1.864498 2.639925 3.690234 5.098345 6.967784 9.426512 12.631098 16.771167 22.074006 28.809211 37.293203 47.893498 61.032574 77.191249 96.911450 120.798169 149.520157 183.808447 224.451276 272.283786 328.171906 392.993784 467.631047 552.997718 650.154983 760.574650 886.595328 1032.010562 1202.465747 1404.880660 1644.641572 1919.742593 2216.343882 2521.598697 2856.659922 3265.097051 3753.269905 4302.115966 4903.745368 5563.495410 6256.407622 6993.719890 7808.634110 8627.438938 9393.029624 10109.580800 10688.837628 11222.983745 11740.710879 12143.610178 12436.495378 12605.589483 12858.409290 13215.541773 13278.898241 13303.296341 13321.126993 13321.126993 13321.126993 -0.000000 -0.000000 -0.000000 -0.000000 -0.000000 -0.000000 -0.000000 -0.000000 -0.000000 -0.000000 -0.000001 -0.000001 -0.000002 -0.000003 -0.000004 -0.000007 -0.000010 -0.000015 -0.000023 -0.000035 -0.000052 -0.000076 -0.000111 -0.000162 -0.000233 -0.000332 -0.000468 -0.000654 -0.000905 -0.001237 -0.001671 -0.002226 -0.002921 -0.003768 -0.004762 -0.005872 -0.007018 -0.008043 -0.008666 -0.008425 -0.006582 -0.002006 0.006999 0.022915 0.049316 0.091260 0.155802 0.252649 0.394997 0.600565 0.892887 1.302877 1.870718 2.648113 3.700905 5.112120 6.985399 9.448831 12.659119 16.806029 22.116989 28.861729 37.356801 47.969835 61.123408 77.298418 97.036845 120.943703 149.687701 183.999726 224.667713 272.526305 328.440768 393.288615 467.951184 553.342570 650.522409 760.950856 886.920205 1032.087763 1201.781321 1402.365721 1638.765159 1910.296395 2209.098108 2529.507044 2884.130399 3298.785522 3786.181961 4340.901884 4952.993545 5617.001724 6321.025618 7067.733600 7859.132031 8652.392859 9407.177841 10103.997287 10710.642910 11257.210101 11746.690955 12149.522271 12462.961913 12710.163433 12954.981594 13159.500735 13253.388029 13277.965256 13280.693472 13280.693472 13280.693472 -0.000000 -0.000000 -0.000000 -0.000000 -0.000000 -0.000000 -0.000000 -0.000000 -0.000000 -0.000000 -0.000001 -0.000001 -0.000002 -0.000003 -0.000004 -0.000007 -0.000010 -0.000015 -0.000023 -0.000035 -0.000052 -0.000076 -0.000111 -0.000162 -0.000233 -0.000332 -0.000468 -0.000654 -0.000905 -0.001237 -0.001671 -0.002226 -0.002921 -0.003768 -0.004762 -0.005872 -0.007018 -0.008043 -0.008666 -0.008425 -0.006582 -0.002006 0.006999 0.022915 0.049316 0.091260 0.155802 0.252649 0.394997 0.600565 0.892887 1.302877 1.870718 2.648113 3.700905 5.112120 6.985399 9.448831 12.659119 16.806029 22.116989 28.861729 37.356801 47.969835 61.123408 77.298418 97.036845 120.943703 149.687701 183.999726 224.667713 272.526305 328.440768 393.288615 467.951184 553.342570 650.522409 760.950856 886.920205 1032.087763 1201.781321 1402.365721 1638.765159 1910.296395 2209.098108 2529.507044 2884.130399 3298.785522 3786.181961 4340.901884 4952.993545 5617.001724 6321.025618 7067.733600 7859.132031 8652.392859 9407.177841 10103.997287 10710.642910 11257.210101 11746.690955 12149.522271 12462.961913 12710.163433 12954.981594 13159.500735 13253.388029 13277.965256 13280.693472 13280.693472 13280.693472 -0.000000 -0.000000 -0.000000 -0.000000 -0.000000 -0.000000 -0.000000 -0.000000 -0.000000 -0.000000 -0.000001 -0.000001 -0.000002 -0.000003 -0.000004 -0.000007 -0.000010 -0.000015 -0.000023 -0.000035 -0.000052 -0.000076 -0.000111 -0.000162 -0.000233 -0.000332 -0.000468 -0.000654 -0.000905 -0.001237 -0.001671 -0.002226 -0.002921 -0.003768 -0.004762 -0.005872 -0.007018 -0.008043 -0.008666 -0.008425 -0.006582 -0.002006 0.006999 0.022915 0.049316 0.091260 0.155802 0.252649 0.394997 0.600565 0.892887 1.302877 1.870718 2.648113 3.700905 5.112120 6.985399 9.448831 12.659119 16.806029 22.116989 28.861729 37.356801 47.969835 61.123408 77.298418 97.036845 120.943703 149.687701 183.999726 224.667713 272.526305 328.440768 393.288615 467.951184 553.342570 650.522409 760.950856 886.920205 1032.087763 1201.781321 1402.365721 1638.765159 1910.296395 2209.098108 2529.507044 2884.130399 3298.785522 3786.181961 4340.901884 4952.993545 5617.001724 6321.025618 7067.733600 7859.132031 8652.392859 9407.177841 10103.997287 10710.642910 11257.210101 11746.690955 12149.522271 12462.961913 12710.163433 12954.981594 13159.500735 13253.388029 13277.965256 13280.693472 13280.693472 13280.693472 -1354.901050 -1531.660401 -1826.858040 -2401.510393 -1999.382190 -193.489896 -275.886752 -1329.939200 -592.831623 1248.381265 711.526289 -399.244052 -1525.979105 -901.646704 1357.610297 674.580402 -1109.011944 -1810.719029 872.665223 1378.269481 -1217.757609 -1418.903056 1897.262998 1782.559423 172.782234 -1340.615632 -1796.237596 1374.978933 2050.052422 446.880878 -1161.624683 -1985.348747 1431.354681 2538.046563 775.296444 -1118.995563 -2688.279318 367.240640 3941.095707 7281.188610 5250.528636 7967.440506 11579.267134 8651.887908 9331.488266 11644.914577 11747.014802 11535.601213 7464.962133 10839.165780 11521.395646 12138.882128 12917.218672 12905.268541 12905.268541 12905.268541 -877.743234 155.751560 -291.852729 14280.963367 9520.412764 8601.542000 17818.547981 7917.399001 7347.931104 13124.552264 7029.476355 11016.789317 13659.229906 10573.967938 8138.464401 14618.693469 11979.822746 7217.653381 10799.880126 11454.500626 14162.412183 10730.774109 10094.836879 10571.402417 9706.259306 13693.885332 10924.621233 11593.072774 11491.080797 11415.792815 11077.837943 9718.641727 11056.373288 9773.223151 9412.833394 11193.783252 9212.176146 8635.255539 11458.421267 11830.232128 10883.878376 7042.612479 9567.109244 12383.259295 11192.308199 8160.047175 11932.123232 12099.692632 9307.939099 12247.837811 14068.339233 12050.100306 12815.943375 12837.687574 12837.687574 12837.687574 132.853768 119.498599 3426.028291 4066.064024 9194.299880 13401.848392 13490.256412 9562.515806 16858.978298 14022.556208 9392.527245 10355.661226 10061.005155 12495.612861 11847.448390 13357.207379 7583.750550 15420.811534 11302.352288 11790.326728 13811.823965 9067.229070 12374.312327 9863.409783 11021.540332 11195.390842 8417.200071 12837.824153 10569.609389 10404.014880 10236.248697 10387.207244 10716.591297 12196.922270 9211.064398 8633.524290 7668.123122 10819.286184 11021.388289 9281.536544 9788.484480 9875.314924 10596.129155 11608.832757 9978.310992 13100.436330 10014.143438 10921.156077 8685.529121 12391.394961 11989.462684 13467.898355 12898.865220 12619.991140 12619.991140 12619.991140 -228.158884 -522.285815 10115.908639 5594.958009 11741.902533 4234.543997 12194.641086 7578.196969 11773.879448 10606.599040 10914.052591 14141.467066 9175.324813 8242.959334 14310.171088 9218.146495 9790.477132 9472.250079 8613.346380 10332.514377 13542.915311 8590.274779 10608.619026 11677.684656 12756.788353 9511.980630 11517.781114 9073.826072 8806.254942 11410.252822 10296.782212 13641.567916 14037.119225 11802.139443 10149.774745 10245.031764 12569.388837 10772.798851 9018.251787 9337.115347 9677.960716 9817.789441 9346.823786 13823.838913 10930.735412 15533.034606 15860.389522 10501.697526 11356.940016 14033.290238 13432.614099 9630.389065 11931.683378 12318.680946 12318.680946 12318.680946 499.460343 1717.725435 1690.965907 6089.164102 2079.838190 11222.444551 7833.162291 9557.781883 6963.897094 9579.044299 3482.056176 6666.605031 7464.766173 15771.251050 9767.228599 12396.771115 6093.010459 4966.543894 5399.252746 4700.90