<VTKFile type="PolyData">
<PolyData>
<Piece NumberOfPoints="8632" NumberOfVerts="8632" NumberOfLines="0" NumberOfStrips="0" NumberOfPolys="0">
<PointData>
<DataArray type="Float64" Name="Pressure" format="ascii">
 -5.507340 -5.507340 -5.507340 -5.570141 -6.274466 -8.092859 -10.155405 -12.508790 -15.142622 -18.060972 -21.287083 -24.855521 -28.807181 -33.187008 -38.043113 -43.426436 -49.390627 -55.991989 -63.289420 -71.344337 -80.220569 -89.984205 -100.703401 -112.448139 -125.289939 -139.301520 -154.556408 -171.128491 -189.091527 -208.518592 -229.481479 -252.050034 -276.291448 -302.269479 -330.043613 -359.668168 -391.191323 -424.654089 -460.089236 -497.520174 -536.959870 -578.409816 -621.859179 -667.284220 -714.648145 -763.901512 -814.983309 -867.822627 -922.340516 -978.450603 -1036.054915 -1095.026151 -1155.155949 -1216.028458 -1276.760884 -1335.865961 -1391.756300 -1442.820504 -1485.879055 -1514.129217 -1514.905035 -1466.637168 -1341.190199 -1149.059706 -968.804355 -830.653758 -681.317892 -497.423016 -350.098343 -285.125182 -261.328970 -214.557301 -107.549965 15.677796 72.304359 59.595228 24.922227 15.982121 76.965181 227.237574 420.215534 592.465929 746.755038 925.880637 1169.827988 1501.589266 1924.558845 2429.658371 3009.854682 3661.161731 4360.472223 5066.615393 5753.074232 6419.308324 7081.581897 7748.975288 8410.052384 9048.931676 9658.442341 10227.681542 10738.999238 11187.808215 11581.268323 11927.534097 12232.731991 12504.386526 12763.777435 12951.397542 12989.111076 12989.111076 12989.111076 -5.507340 -5.507340 -5.507340 -5.570141 -6.274466 -8.092859 -10.155405 -12.508790 -15.142622 -18.060972 -21.287083 -24.855521 -28.807181 -33.187008 -38.043113 -43.426436 -49.390627 -55.991989 -63.289420 -71.344337 -80.220569 -89.984205 -100.703401 -112.448139 -125.289939 -139.301520 -154.556408 -171.128491 -189.091527 -208.518592 -229.481479 -252.050034 -276.291448 -302.269479 -330.043613 -359.668168 -391.191323 -424.654089 -460.089236 -497.520174 -536.959870 -578.409816 -621.859179 -667.284220 -714.648145 -763.901512 -814.983309 -867.822627 -922.340516 -978.450603 -1036.054915 -1095.026151 -1155.155949 -1216.028458 -1276.760884 -1335.865961 -1391.756300 -1442.820504 -1485.879055 -1514.129217 -1514.905035 -1466.637168 -1341.190199 -1149.059706 -968.804355 -830.653758 -681.317892 -497.423016 -350.098343 -285.125182 -261.328970 -214.557301 -107.549965 15.677796 72.304359 59.595228 24.922227 15.982121 76.965181 227.237574 420.215534 592.465929 746.755038 925.880637 1169.827988 1501.589266 1924.558845 2429.658371 3009.854682 3661.161731 4360.472223 5066.615393 5753.074232 6419.308324 7081.581897 7748.975288 8410.052384 9048.931676 9658.442341 10227.681542 10738.999238 11187.808215 11581.268323 11927.534097 12232.731991 12504.386526 12763.777435 12951.397542 12989.111076 12989.111076 12989.111076 -5.507340 -5.507340 -5.507340 -5.570141 -6.274466 -8.092859 -10.155405 -12.508790 -15.142622 -18.060972 -21.287083 -24.855521 -28.807181 -33.187008 -38.043113 -43.426436 -49.390627 -55.991989 -63.289420 -71.344337 -80.220569 -89.984205 -100.703401 -112.448139 -125.289939 -139.301520 -154.556408 -171.128491 -189.091527 -208.518592 -229.481479 -252.050034 -276.291448 -302.269479 -330.043613 -359.668168 -391.191323 -424.654089 -460.089236 -497.520174 -536.959870 -578.409816 -621.859179 -667.284220 -714.648145 -763.901512 -814.983309 -867.822627 -922.340516 -978.450603 -1036.054915 -1095.026151 -1155.155949 -1216.028458 -1276.760884 -1335.865961 -1391.756300 -1442.820504 -1485.879055 -1514.129217 -1514.905035 -1466.637168 -1341.190199 -1149.059706 -968.804355 -830.653758 -681.317892 -497.423016 -350.098343 -285.125182 -261.328970 -214.557301 -107.549965 15.677796 72.304359 59.595228 24.922227 15.982121 76.965181 227.237574 420.215534 592.465929 746.755038 925.880637 1169.827988 1501.589266 1924.558845 2429.658371 3009.854682 3661.161731 4360.472223 5066.615393 5753.074232 6419.308324 7081.581897 7748.975288 8410.052384 9048.931676 9658.442341 10227.681542 10738.999238 11187.808215 11581.268323 11927.534097 12232.731991 12504.386526 12763.777435 12951.397542 12989.111076 12989.111076 12989.111076 -5.482694 -5.482694 -5.482694 -5.544306 -6.243515 -8.049797 -10.117286 -12.485411 -15.129974 -18.053093 -21.280846 -24.849559 -28.800918 -33.180197 -38.035632 -43.418215 -49.381617 -55.982147 -63.278707 -71.332718 -80.208011 -89.970678 -100.688878 -112.432597 -125.273360 -139.283891 -154.537721 -171.108746 -189.070733 -208.496764 -229.458642 -252.026223 -276.266709 -302.243869 -330.017203 -359.641042 -391.163577 -424.625839 -460.060610 -497.491319 -536.930946 -578.381000 -621.830660 -667.256203 -714.620859 -763.875248 -814.958516 -867.800200 -922.322510 -978.442079 -1036.068548 -1095.093472 -1155.352675 -1216.520180 -1277.755297 -1337.414385 -1393.786318 -1445.857818 -1491.156241 -1523.889759 -1533.031384 -1495.784486 -1352.914234 -1102.016340 -954.685886 -834.738879 -700.752750 -489.946831 -318.615381 -268.965098 -268.061754 -235.319480 -116.586416 46.476099 97.634786 69.262183 18.072300 -6.693573 46.699372 215.187045 434.966124 611.276557 757.186652 928.806270 1168.077590 1496.394958 1914.508516 2411.123677 2981.806486 3635.625256 4349.359520 5065.018932 5752.580099 6410.761982 7068.925785 7742.714766 8411.536384 9053.162005 9667.132921 10245.730314 10760.840700 11209.340098 11600.987730 11945.619609 12248.727437 12507.601173 12758.683341 12951.551470 12991.181044 12991.181044 12991.181044 -5.214907 -5.214907 -5.214907 -5.263657 -5.866553 -7.478284 -9.626652 -12.237272 -15.002691 -17.975029 -21.218910 -24.790138 -28.738399 -33.112150 -37.960877 -43.336061 -49.291564 -55.883775 -63.171636 -71.216592 -80.082499 -89.835476 -100.543716 -112.277245 -125.107635 -139.107662 -154.350920 -170.911374 -188.862863 -208.278557 -229.230346 -251.788189 -276.019394 -301.987847 -329.753173 -359.369840 -390.886185 -424.343392 -459.774402 -497.202806 -536.641743 -578.092868 -621.545496 -666.976051 -714.348003 -763.612544 -814.710389 -867.575336 -922.140872 -978.352800 -1036.195037 -1095.745617 -1157.298648 -1221.548648 -1289.794941 -1356.576136 -1416.537958 -1478.825255 -1548.243175 -1629.591122 -1733.254201 -1835.963528 -1498.913097 -503.924300 -516.713836 -920.874248 -1076.585740 -382.419781 159.572759 -77.057662 -351.270639 -602.973841 -276.290634 498.143899 446.672047 178.628656 -61.936613 -280.712490 -417.820843 17.104616 724.433830 862.094618 881.400105 962.767676 1150.479941 1441.918474 1810.851120 2204.361379 2634.537559 3314.935093 4223.754872 5054.751796 5738.614055 6262.947192 6853.763835 7640.662770 8419.216456 9055.509396 9697.160506 10397.296311 10958.383206 11391.715292 11754.264168 12089.834615 12411.184726 12480.181704 12619.985235 12928.902641 13009.728836 13009.728836 13009.728836 -4.831962 -4.831962 -4.831962 -4.870070 -5.308417 -6.467090 -8.554177 -11.804693 -14.818427 -17.872458 -21.143354 -24.720636 -28.666607 -33.034554 -37.875844 -43.242689 -49.189241 -55.772007 -63.049981 -71.084643 -79.939876 -89.681834 -100.378747 -112.100686 -124.919275 -138.907353 -154.138583 -170.687006 -188.626549 -208.030477 -228.970783 -251.517538 -275.738174 -301.696708 -329.452910 -359.061401 -390.570684 -424.022118 -459.448828 -496.874591 -536.312729 -577.765073 -621.221114 -666.657491 -714.038054 -763.314920 -814.431263 -867.327422 -921.953977 -978.300721 -1036.463846 -1096.808320 -1160.374404 -1229.957061 -1313.210358 -1386.516901 -1444.717543 -1517.389552 -1614.791297 -1753.095408 -1969.952957 -2368.951263 -2325.350292 -591.540041 -93.351946 -1054.684958 -1566.285403 -64.166736 950.365494 204.919045 -476.040279 -1172.255163 -555.416060 1102.332715 939.459580 312.791274 -160.518556 -673.519760 -1292.277243 -306.703156 1408.797727 1313.587843 1045.217338 1010.805518 1136.453589 1384.369993 1697.446944 2047.985797 1970.228351 2671.337310 4247.990293 4948.573851 6029.033488 5925.770633 6353.532193 7684.364995 8791.852525 9030.748563 9342.506100 10407.483533 10885.894171 11330.299332 11722.169115 12021.011095 12874.538065 12227.497603 12349.260078 12879.610656 13032.837415 13032.837415 13032.837415 -4.777343 -4.777343 -4.777343 -4.813967 -5.231416 -6.306808 -4.395205 -4.395205 -4.395205 -4.419189 -4.691511 -5.285714 -3.796953 -3.796953 -3.796953 -3.807598 -3.921125 -4.113831 -3.250501 -3.250501 -3.250501 -3.254535 -3.294432 -3.360454 -2.767868 -2.767868 -2.767868 -2.768964 -2.779440 -2.798869 -2.348132 -2.348132 -2.348132 -2.348101 -2.347569 -2.349856 -1.986209 -1.986209 -1.986209 -1.985792 -1.981540 -1.977843 -1.675753 -1.675753 -1.675753 -1.675239 -1.670070 -1.664648 -1.410420 -1.410420 -1.410420 -1.409916 -1.404864 -1.399310 -1.184326 -1.184326 -1.184326 -1.183867 -1.179281 -1.174150 -0.992179 -0.992179 -0.992179 -0.991775 -0.987739 -0.983190 -0.829295 -0.829295 -0.829295 -0.828944 -0.825444 -0.821487 -0.691557 -0.691557 -0.691557 -0.691255 -0.688243 -0.684835 -0.575367 -0.575367 -0.575367 -0.575109 -0.572530 -0.569611 -0.477592 -0.477592 -0.477592 -0.477372 -0.475173 -0.472683 -0.395514 -0.395514 -0.395514 -0.395327 -0.393457 -0.391340 -0.326781 -0.326781 -0.326781 -0.326622 -0.325037 -0.323242 -0.269363 -0.269363 -0.269363 -0.269229 -0.267888 -0.266370 -0.221514 -0.221514 -0.221514 -0.221401 -0.220271 -0.218991 -0.181738 -0.181738 -0.181738 -0.181643 -0.180692 -0.179616 -0.148754 -0.148754 -0.148754 -0.148674 -0.147877 -0.146974 -0.121469 -0.121469 -0.121469 -0.121402 -0.120735 -0.119980 -0.098954 -0.098954 -0.098954 -0.098899 -0.098342 -0.097711 -0.080422 -0.080422 -0.080422 -0.080375 -0.079912 -0.079387 -0.065205 -0.065205 -0.065205 -0.065166 -0.064781 -0.064346 -0.052741 -0.052741 -0.052741 -0.052709 -0.052390 -0.052030 -0.042558 -0.042558 -0.042558 -0.042531 -0.042268 -0.041971 -0.034259 -0.034259 -0.034259 -0.034237 -0.034020 -0.033775 -0.027512 -0.027512 -0.027512 -0.027494 -0.027316 -0.027114 -0.022040 -0.022040 -0.022040 -0.022026 -0.021880 -0.021715 -0.017615 -0.017615 -0.017615 -0.017603 -0.017484 -0.017349 -0.014044 -0.014044 -0.014044 -0.014034 -0.013937 -0.013827 -0.011170 -0.011170 -0.011170 -0.011162 -0.011083 -0.010993 -0.008862 -0.008862 -0.008862 -0.008856 -0.008792 -0.008719 -0.007014 -0.007014 -0.007014 -0.007009 -0.006957 -0.006899 -0.005538 -0.005538 -0.005538 -0.005534 -0.005492 -0.005445 -0.004362 -0.004362 -0.004362 -0.004359 -0.004325 -0.004287 -0.003428 -0.003428 -0.003428 -0.003425 -0.003398 -0.003368 -0.002687 -0.002687 -0.002687 -0.002684 -0.002663 -0.002639 -0.002101 -0.002101 -0.002101 -0.002099 -0.002082 -0.002062 -0.001638 -0.001638 -0.001638 -0.001637 -0.001623 -0.001608 -0.001275 -0.001275 -0.001275 -0.001274 -0.001263 -0.001251 -0.000989 -0.000989 -0.000989 -0.000989 -0.000980 -0.000970 -0.000766 -0.000766 -0.000766 -0.000765 -0.000759 -0.000751 -0.000592 -0.000592 -0.000592 -0.000591 -0.000586 -0.000580 -0.000456 -0.000456 -0.000456 -0.000455 -0.000451 -0.000447 -0.000350 -0.000350 -0.000350 -0.000350 -0.000347 -0.000343 -0.000269 -0.000269 -0.000269 -0.000268 -0.000266 -0.000263 -0.000205 -0.000205 -0.000205 -0.000205 -0.000203 -0.000201 -0.000157 -0.000157 -0.000157 -0.000157 -0.000155 -0.000153 -0.000119 -0.000119 -0.000119 -0.000119 -0.000118 -0.000117 -0.000091 -0.000091 -0.000091 -0.000090 -0.000090 -0.000088 -0.000069 -0.000069 -0.000069 -0.000068 -0.000068 -0.000067 -0.000052 -0.000052 -0.000052 -0.000052 -0.000051 -0.000051 -0.000039 -0.000039 -0.000039 -0.000039 -0.000039 -0.000038 -0.000029 -0.000029 -0.000029 -0.000029 -0.000029 -0.000029 -0.000022 -0.000022 -0.000022 -0.000022 -0.000022 -0.000021 -0.000016 -0.000016 -0.000016 -0.000016 -0.000016 -0.000016 -0.000012 -0.000012 -0.000012 -0.000012 -0.000012 -0.000012 -0.000009 -0.000009 -0.000009 -0.000009 -0.000009 -0.000009 -0.000007 -0.000007 -0.000007 -0.000007 -0.000007 -0.000007 -0.000005 -0.000005 -0.000005 -0.000005 -0.000005 -0.000005 -0.000004 -0.000004 -0.000004 -0.000004 -0.000004 -0.000004 -0.000003 -0.000003 -0.000003 -0.000003 -0.000003 -0.000003 -0.000002 -0.000002 -0.000002 -0.000002 -0.000002 -0.000002 -0.000001 -0.000001 -0.000001 -0.000001 -0.000001 -0.000001 -0.000001 -0.000001 -0.000001 -0.000001 -0.000001 -0.000001 -0.000001 -0.000001 -0.000001 -0.000001 -0.000001 -0.000001 -0.000001 -0.000001 -0.000001 -0.000001 -0.000001 -0.000001 -0.000000 -0.000000 -0.000000 -0.000000 -0.000000 -0.000000 -0.000000 -0.000000 -0.000000 -0.000000 -0.000000 -0.000000 -0.000000 -0.000000 -0.000000 -0.000000 -0.000000 -0.000000 -0.000000 -0.000000 -0.000000 -0.000000 -0.000000 -0.000000 -0.000000 -0.000000 -0.000000 -0.000000 -0.000000 -0.000000 -0.000000 -0.000000 -0.000000 -0.000000 -0.000000 -0.000000 -0.000000 -0.000000 -0.000000 -0.000000 -0.000000 -0.000000 -0.000000 -0.000000 -0.000000 -0.000000 -0.000000 -0.000000 -0.000000 -0.000000 -0.000000 -0.000000 -0.000000 -0.000000 -0.000000 -0.000000 -0.000000 -0.000000 -0.000000 -0.000000 -0.000000 -0.000000 -0.000000 -0.000000 -0.000000 -0.000000 -0.000000 -0.000000 -0.000000 -0.000000 -0.000000 -0.000000 -0.000000 -0.000000 -0.000000 -0.000000 -0.000000 -0.000000 -0.000000 -0.000000 -0.000000 -0.000000 -0.000000 -0.000000 -0.000000 -0.000000 -0.000000 -0.000000 -0.000000 -0.000000 -0.000000 -0.000000 -0.000000 -0.000000 -0.000000 -0.000000 -0.000000 -0.000000 -0.000000 -0.000000 -0.000000 -0.000000 -0.000000 -0.000000 -0.000000 -0.000000 -0.000000 -0.000000 -0.000000 -0.000000 -0.000000 -0.000000 -0.000000 -0.000000 -0.000000 -0.000000 -0.000000 -0.000000 -0.000000 -0.000000 -0.000000 -0.000000 -0.000000 -0.000000 -0.000000 -0.000000 -0.000000 -0.000000 -0.000000 -0.000000 -0.000000 -0.000000 -0.000000 -0.000000 -0.000000 -0.000000 -0.000000 -0.000000 -0.000000 -0.000000 -0.000000 -0.000000 -0.000000 -0.000000 -0.000000 -0.000000 -0.000000 -0.000000 -0.000000 -0.000000 -0.000000 -0.000000 -0.000000 -0.000000 -0.000000 -0.000000 -0.000000 -0.000000 -0.000000 -0.000000 -0.000000 -0.000000 -0.000000 -0.000000 -0.000000 -0.000000 -0.000000 -0.000000 -0.000000 -0.000000 -0.000000 -0.000000 -0.000000 -0.000000 -0.000000 -0.000000 -0.000000 -0.000000 -0.000000 -0.000000 -0.000000 -0.000000 -0.000000 -0.000000 -0.000000 -0.000000 -0.000000 -0.000000 -0.000000 -0.000000 -0.000000 -0.000000 -0.000000 -0.000000 -0.000000 -0.000000 -0.000000 -0.000000 -0.000000 -0.000000 -0.000000 -0.000000 -0.000000 -0.000000 -0.000000 -0.000000 -0.000000 -0.000000 -0.000000 -0.000000 -0.000000 -0.000000 -0.000000 -0.000000 -0.000000 -0.000000 -0.000000 -0.000000 -0.000000 -0.000000 -0.000000 -0.000000 -0.000000 -0.000000 -0.000000 -0.000000 -0.000000 -0.000000 -0.000000 -0.000000 -0.000000 -0.000000 -0.000000 -0.000000 -0.000000 -0.000000 -0.000000 -0.000000 -0.000000 -0.000000 -0.000000 -0.000000 -0.000000 -0.000000 -0.000000 -0.000000 -0.000000 -0.000000 -0.000000 -0.000000 -0.000000 -0.000000 -0.000000 -0.000000 -0.000000 -0.000000 -0.000000 -0.000000 -0.000000 -0.000000 -0.000000 -0.000000 -0.000000 -0.000000 -0.000000 -0.000000 -0.000000 -0.000000 -0.000000 -0.000000 -0.000000 -0.000000 -0.000000 -0.000000 -0.000000 -0.000000 -0.000000 -0.000000 -0.000000 -0.000000 -0.000000 -0.000000 -0.000000 -0.000000 -0.000000 -0.000000 -0.000000 -0.000000 -0.000000 -0.000000 -0.000000 -0.000000 -0.000000 -0.000000 -0.000000 -0.000000 -0.000000 -0.000000 -0.000000 -0.000000 -0.000000 -0.000000 -0.000000 -0.000000 -0.000000 -0.000000 -0.000000 -0.000000 -0.000000 -0.000000 -0.000000 -0.000000 -0.000000 -0.000000 -0.000000 -0.000000 -0.000000 -0.000000 -0.000000 -0.000000 -0.000000 -0.000000 -0.000000 -0.000000 -0.000000 -0.000000 -0.000000 -0.000000 -0.000000 -0.000000 -0.000000 -0.000000 -0.000000 -0.000000 -0.000000 -0.000000 -0.000000 -0.000000 -0.000000 -0.000000 -0.000000 -0.000000 -0.000000 -0.000000 -0.000000 -0.000000 -0.000000 -0.000000 -0.000000 -0.000000 -0.000000 -0.000000 -0.000000 -0.000000 -0.000000 -0.000000 -0.000000 -0.000000 -0.000000 -0.000000 -0.000000 -0.000000 -0.000000 -0.000000 -0.000000 -0.000000 -0.000000 -0.000000 -0.000000 -0.000000 -0.000000 -0.000000 -0.000000 -0.000000 -0.000000 -0.000000 -0.000000 -0.000000 -0.000000 -0.000000 -0.000000 -0.000000 -0.000000 -0.000000 -0.000000 -0.000000 -0.000000 -0.000000 -0.000000 -0.000000 -0.000000 -0.000000 -0.000000 -0.000000 -0.000000 -0.000000 -0.000000 -0.000000 -0.000000 -0.000000 -0.000000 -0.000000 -0.000000 -0.000000 -0.000000 -0.000000 -0.000000 -0.000000 -0.000000 -0.000000 -0.000000 -0.000000 -0.000000 -0.000000 -0.000000 -0.000000 -0.000000 -0.000000 -0.000000 -0.000000 -0.000000 -0.000000 -0.000000 -0.000000 -0.000000 -0.000000 -0.000000 -0.000000 -0.000000 -0.000000 -0.000000 -0.000000 -0.000000 -0.000000 -0.000000 -0.000000 -0.000000 -0.000000 -0.000000 -0.000000 -0.000000 -0.000000 -0.000000 -0.000000 -0.000000 -0.000000 -0.000000 -0.000000 -0.000000 -0.000000 -0.000000 -0.000000 -0.000000 -0.000000 -0.000000 -0.000000 -0.000000 -0.000000 -0.000000 -0.000000 -0.000000 -0.000000 -0.000000 -0.000000 -0.000000 -0.000000 -0.000000 -0.000000 -0.000000 -0.000000 -0.000000 -0.000000 -0.000000 -0.000000 -0.000000 -0.000000 -0.000000 -0.000000 -0.000000 -0.000000 -0.000000 -0.000000 -0.000000 -0.000000 -0.000000 -0.000000 -0.000000 -0.000000 -0.000000 -0.000000 -0.000000 -0.000000 -0.000000 -0.000000 -0.000000 -0.000000 -0.000000 -0.000000 -0.000000 -0.000000 -0.000000 -0.000000 -0.000000 -0.000000 -0.000000 -0.000000 -0.000000 -0.000000 -0.000000 -0.000000 -0.000000 -0.000000 -0.000000 -0.000000 -0.000000 -0.000000 -0.000000 -0.000000 -0.000000 -0.000000 -0.000000 -0.000000 -0.000000 -0.000000 -0.000000 -0.000000 -0.000000 -0.000000 -0.000000 -0.000000 -0.000000 -0.000000 -0.000000 -0.000000 -0.000000 -0.000000 -0.000000 -0.000000 -0.000000 -0.000000 -0.000000 -0.000000 -0.000000 -0.000000 -0.000000 -0.000000 -0.000000 -0.000000 -0.000000 -0.000000 -0.000000 -0.000000 -0.000000 -0.000000 -0.000000 -0.000000 -0.000000 -0.000000 -0.000000 -0.000000 -0.000000 -0.000000 -0.000000 -0.000000 -0.000000 -0.000000 -0.000000 -0.000000 -0.000000 -0.000000 -0.000000 -0.000000 -0.000000 -0.000000 -0.000000 -0.000000 0.000000 0.000000 0.000000 0.000000 0.000000 0.000000 0.000000 0.000000 0.000000 0.000000 0.000000 0.000000 0.000000 0.000000 0.000000 0.000000 0.000000 0.000000 0.000000 0.000000 0.000000 0.000000 0.000000 0.000000 0.000000 0.000000 0.000000 0.000000 0.000000 0.000000 0.000000 0.000000 0.000000 0.000000 0.000000 0.000000 0.000001 0.000001 0.000001 0.000001 0.000001 0.000001 0.000001 0.000001 0.000001 0.000001 0.000001 0.000001 0.000002 0.000002 0.000002 0.000002 0.000002 0.000002 0.000003 0.000003 0.000003 0.000003 0.000002 0.000002 0.000004 0.000004 0.000004 0.000004 0.000004 0.000004 0.000006 0.000006 0.000006 0.000006 0.000006 0.000006 0.000009 0.000009 0.000009 0.000009 0.000009 0.000009 0.000014 0.000014 0.000014 0.000014 0.000013 0.000013 0.000021 0.000021 0.000021 0.000021 0.000020 0.000020 0.000031 0.000031 0.000031 0.000031 0.000031 0.000030 0.000047 0.000047 0.000047 0.000047 0.000046 0.000045 0.000070 0.000070 0.000070 0.000070 0.000069 0.000067 0.000105 0.000105 0.000105 0.000105 0.000103 0.000100 0.000156 0.000156 0.000156 0.000156 0.000152 0.000149 0.000231 0.000231 0.000231 0.000230 0.000226 0.000220 0.000340 0.000340 0.000340 0.000340 0.000333 0.000325 0.000500 0.000500 0.000500 0.000499 0.000489 0.000478 0.000732 0.000732 0.000732 0.000730 0.000716 0.000701 0.001066 0.001066 0.001066 0.001064 0.001045 0.001024 0.001547 0.001547 0.001547 0.001545 0.001518 0.001490 0.002235 0.002235 0.002235 0.002231 0.002197 0.002161 0.003212 0.003212 0.003212 0.003208 0.003167 0.003126 0.004592 0.004592 0.004592 0.004588 0.004549 0.004519 0.006524 0.006524 0.006524 0.006524 0.006518 0.006549 0.009203 0.009203 0.009203 0.009216 0.009338 0.009574 0.012863 0.012863 0.012863 0.012915 0.013424 0.014271 0.017747 0.017747 0.017747 0.017905 0.019487 0.022075 0.024010 0.024010 0.024010 0.024410 0.028725 0.036393 0.031529 0.031529 0.031529 0.032361 0.042029 0.066930 0.039776 0.039776 0.039776 0.041118 0.057527 0.104915 0.182428 0.287969 0.407630 0.554777 0.740449 0.976197 1.275225 1.652993 2.127644 2.720361 3.455656 4.361589 5.469867 6.815805 8.438076 10.378197 12.679674 15.386744 18.542629 22.187252 26.354352 31.067985 36.338435 42.157587 48.493915 55.287264 62.443740 69.831033 77.274632 84.555391 91.408955 97.527528 102.564394 106.141482 107.860062 107.314449 104.108259 97.872495 88.284392 75.085708 58.098848 37.238878 12.518773 -15.956692 -48.017710 -83.497592 -122.388998 -165.193119 -213.695887 -272.694559 -353.857645 -484.439472 -728.118041 -1228.170695 -2555.842353 -2059.920157 2288.527914 2557.022573 1030.555544 200.571588 -854.038424 -2731.291016 -754.950260 3543.453628 3126.502857 2429.802837 2206.982933 2038.510783 1732.572967 1025.873656 -823.294205 -2860.066031 2193.445321 5816.689240 4863.309085 4148.273144 3763.360277 4460.558812 3031.697332 3689.061933 6925.685189 9759.559082 8445.406010 9869.536901 11874.461404 10465.561005 10663.090715 12724.114707 14348.262560 14102.662593 13702.514182 14677.847628 14721.699962 14668.371791 15337.352190 15924.966809 16359.119658 15932.289557 13980.358069 15632.324244 19286.861121 19849.193793 19801.465840 19801.465840 19801.465840 0.048236 0.048236 0.048236 0.049950 0.071162 0.128654 0.202603 0.296800 0.414071 0.561353 0.748160 0.985626 1.286839 1.667240 2.144995 2.741317 3.480746 4.391355 5.504846 6.856498 8.484910 10.431473 12.739510 15.453000 18.614830 22.264498 26.435225 31.150463 36.419812 42.234412 48.561963 55.341550 62.478581 69.840180 77.251467 84.493204 91.301287 97.368582 102.349487 105.867510 107.525961 106.921599 103.660809 97.377603 87.752423 74.530529 57.538605 36.698089 12.033574 -16.326068 -48.158238 -83.178352 -121.114270 -161.871143 -205.891240 -254.935088 -313.761706 -393.626940 -518.572553 -730.780958 -1028.412336 -669.893199 912.281726 1175.896894 782.746013 418.264787 34.343110 -330.059243 454.956552 1969.930536 2219.762670 2203.043730 2178.610721 2153.107908 2063.146375 1827.289120 1481.599544 1406.744034 3050.038024 4545.245445 4991.795409 5280.357921 5780.766697 6400.462234 6879.188339 7698.176788 8809.148764 9655.515565 10124.534171 11058.265108 11968.587265 12153.768930 12720.510890 13640.288758 14673.958102 14503.811904 14709.420710 15020.580210 14993.718903 15055.027337 15402.555433 16151.509282 16820.487416 16760.800772 16178.417467 17683.567633 19421.094686 19803.253521 19929.095397 19929.095397 19929.095397 0.053119 0.053119 0.053119 0.055086 0.078076 0.138944 0.212392 0.304517 0.420911 0.568744 0.756970 0.996451 1.300187 1.683617 2.164934 2.765390 3.509556 4.425519 5.544975 6.903159 8.538585 10.492498 12.808008 15.528801 18.697377 22.352745 26.527537 31.244513 36.512491 42.321765 48.639154 55.402878 62.517559 69.849680 77.223953 84.421041 91.177141 97.185879 102.102929 105.553610 107.143551 106.472284 103.149331 96.812083 87.144534 73.895733 56.896791 36.075419 11.467254 -16.776322 -48.383628 -82.960589 -119.989061 -158.820316 -198.648844 -238.426137 -276.607894 -310.446996 -333.958677 -331.337144 -251.304695 -8.275561 339.857345 551.458627 601.249427 596.552859 616.428954 754.448275 1103.800567 1541.467375 1850.536496 2032.724133 2156.839599 2257.420228 2354.512216 2475.302303 2681.545947 3098.919416 3791.622204 4541.001454 5196.073622 5833.857597 6551.269284 7353.985147 8189.686288 9043.994690 9875.055038 10622.515064 11315.772783 12013.617427 12652.708755 13197.449831 13735.686138 14279.129835 14743.945344 15062.658918 15324.393168 15591.895538 15870.643927 16169.210087 16505.541225 16876.597506 17249.327298 17571.418426 17926.549621 18576.191779 19301.157590 19878.901952 19997.572269 19997.572269 19997.572269 0.053811 0.053811 0.053811 0.055851 0.079011 0.140228 0.213734 0.305728 0.422089 0.570056 0.758548 0.998395 1.302585 1.686559 2.168517 2.769714 3.514729 4.431652 5.552177 6.911532 8.548212 10.503441 12.820287 15.542384 18.712162 22.368545 26.544056 31.261334 36.529054 42.337362 48.652916 55.413787 62.524451 69.851282 77.218917 84.408005 91.154794 97.153051 102.058678 105.497315 107.075009 106.391786 103.057725 96.710818 87.035684 73.782027 56.781707 35.963458 11.364669 -16.859742 -48.430429 -82.936215 -119.820540 -158.348143 -197.518654 -235.846008 -270.812920 -297.574668 -306.069641 -275.501221 -169.226167 41.341106 301.764730 490.535136 578.219952 622.058958 693.883946 863.761637 1164.450899 1518.844882 1809.048523 2010.153289 2153.838760 2273.493547 2398.559417 2566.602691 2835.872541 3274.865645 3889.887466 4569.875576 5231.898182 5904.593619 6645.992734 7466.151082 8329.828645 9194.364382 10016.063896 10770.294624 11475.345507 12148.710888 12767.899299 13325.419174 13853.664806 14354.255390 14786.660115 15123.145761 15408.302261 15690.001202 15989.002415 16304.866539 16633.419294 16972.417039 17311.622290 17658.775202 18081.458394 18652.520229 19349.069660 19894.100750 20005.618642 20005.618642 20005.618642 0.053811 0.053811 0.053811 0.055851 0.079011 0.140228 0.213734 0.305728 0.422089 0.570056 0.758548 0.998395 1.302585 1.686559 2.168517 2.769714 3.514729 4.431652 5.552177 6.911532 8.548212 10.503441 12.820287 15.542384 18.712162 22.368545 26.544056 31.261334 36.529054 42.337362 48.652916 55.413787 62.524451 69.851282 77.218917 84.408005 91.154794 97.153051 102.058678 105.497315 107.075009 106.391786 103.057725 96.710818 87.035684 73.782027 56.781707 35.963458 11.364669 -16.859742 -48.430429 -82.936215 -119.820540 -158.348143 -197.518654 -235.846008 -270.812920 -297.574668 -306.069641 -275.501221 -169.226167 41.341106 301.764730 490.535136 578.219952 622.058958 693.883946 863.761637 1164.450899 1518.844882 1809.048523 2010.153289 2153.838760 2273.493547 2398.559417 2566.602691 2835.872541 3274.865645 3889.887466 4569.875576 5231.898182 5904.593619 6645.992734 7466.151082 8329.828645 9194.364382 10016.063896 10770.294624 11475.345507 12148.710888 12767.899299 13325.419174 13853.664806 14354.255390 14786.660115 15123.145761 15408.302261 15690.001202 15989.002415 16304.866539 16633.419294 16972.417039 17311.622290 17658.775202 18081.458394 18652.520229 19349.069660 19894.100750 20005.618642 20005.618642 20005.618642 0.053811 0.053811 0.053811 0.055851 0.079011 0.140228 0.213734 0.305728 0.422089 0.570056 0.758548 0.998395 1.302585 1.686559 2.168517 2.769714 3.514729 4.431652 5.552177 6.911532 8.548212 10.503441 12.820287 15.542384 18.712162 22.368545 26.544056 31.261334 36.529054 42.337362 48.652916 55.413787 62.524451 69.851282 77.218917 84.408005 91.154794 97.153051 102.058678 105.497315 107.075009 106.391786 103.057725 96.710818 87.035684 73.782027 56.781707 35.963458 11.364669 -16.859742 -48.430429 -82.936215 -119.820540 -158.348143 -197.518654 -235.846008 -270.812920 -297.574668 -306.069641 -275.501221 -169.226167 41.341106 301.764730 490.535136 578.219952 622.058958 693.883946 863.761637 1164.450899 1518.844882 1809.048523 2010.153289 2153.838760 2273.493547 2398.559417 2566.602691 2835.872541 3274.865645 3889.887466 4569.875576 5231.898182 5904.593619 6645.992734 7466.151082 8329.828645 9194.364382 10016.063896 10770.294624 11475.345507 12148.710888 12767.899299 13325.419174 13853.664806 14354.255390 14786.660115 15123.145761 15408.302261 15690.001202 15989.002415 16304.866539 16633.419294 16972.417039 17311.622290 17658.775202 18081.458394 18652.520229 19349.069660 19894.100750 20005.618642 20005.618642 20005.618642 -1401.243550 -1459.988020 -1537.953985 -1644.272984 -1799.501543 -2044.895020 -2537.748056 -2308.818967 -500.928538 -285.779361 -1255.619207 -1410.408744 394.068234 913.233542 60.667475 -639.444127 -1276.304718 -208.330619 1269.810310 824.861323 221.833988 -267.602604 -861.973269 -1397.724066 119.369237 1621.928349 1270.830869 1034.852215 1026.198305 1176.284720 1439.948436 1790.880370 2164.889977 1885.500045 2926.704264 4474.093742 5176.736514 6285.547545 5803.125251 6522.743935 8042.486405 8957.881820 9013.118437 9367.472647 10515.516435 10794.440765 11434.185799 11679.664592 12162.764701 12799.990957 12011.867043 12553.521988 12942.174271 13039.688642 13039.688642 13039.688642 351.128638 -587.252669 3533.012516 17203.669741 12865.100481 11868.841061 14244.408409 13979.342086 13139.571222 15414.956580 14155.993547 11240.565033 12699.879560 12513.365155 13806.023700 13020.762412 13126.076846 14000.587147 15097.244812 14525.777528 12951.157630 12006.257228 13207.865862 13617.461177 14226.008265 13459.540322 14883.531963 13635.726011 14174.861953 12531.910355 12141.755109 17034.873700 13269.790236 13249.194366 14284.963821 13677.898014 12006.890465 15354.270964 12501.851698 11947.176003 14077.308654 14054.174347 14026.735310 14471.907704 16080.687401 11368.232890 14694.816319 15018.794176 15294.315926 13955.806461 15377.284543 14288.528521 13280.962703 13135.615436 13135.615436 13135.615436 25.432675 1548.864798 11998.712886 6076.164833 13236.358256 11961.451648 10765.803616 18276.215889 12718.866645 11694.748148 12953.147995 17395.385526 13539.833954 14175.226809 13472.209005 16684.391916 13743.081455 12377.158310 12095.141487 12473.646001 13729.299852 14524.800254 13749.620064 14690.173320 15050.666209 13055.816894 12586.206315 13715.350645 13660.518350 13507.754994 11350.618217 13687.879206 12945.483206 12006.139068 12386.195599 13824.551638 13060.850957 11704.905407 12852.493947 16506.358156 13247.592873 13684.414092 11071.799923 14463.423289 12036.404508 12546.584098 15043.351233 16018.439625 11531.948261 16369.347718 15335.155484 15422.798376 13600.326170 13360.227946 13360.227946 13360.227946 642.437358 2713.558226 13749.150044 11238.947321 13387.009984 12395.978600 16541.463164 10968.143068 12784.563548 14786.218059 13713.788958 14801.857091 13145.902236 11887.763343 14906.042983 11672.090962 11186.824064 14174.066310 15119.817093 17402.742778 11476.816189 12068.553851 9423.356638 13233.509291 15248.127355 13944.951581 13624.398489 11634.348788 12637.777485 14064.040988 13127.451234 13767.395486 13969.544848 13598.813928 13272.116016 10872.482360 13311.201521 13917.066752 12785.823918 10588.659172 13266.161410 12004.797011 12633.673218 14094.8668