<VTKFile type="PolyData">
<PolyData>
<Piece NumberOfPoints="8632" NumberOfVerts="8632" NumberOfLines="0" NumberOfStrips="0" NumberOfPolys="0">
<PointData>
<DataArray type="Float64" Name="Pressure" format="ascii">
 -10.853862 -10.853862 -10.853862 -10.952135 -12.052944 -14.886268 -18.079642 -21.689478 -25.681692 -30.044012 -34.793048 -39.961624 -45.590677 -51.725482 -58.414083 -65.706626 -73.655047 -82.312877 -91.735083 -101.977894 -113.098608 -125.155374 -138.206932 -152.312328 -167.530584 -183.920344 -201.539481 -220.444665 -240.690909 -262.331075 -285.415352 -309.990695 -336.100239 -363.782667 -393.071539 -423.994568 -456.572841 -490.819975 -526.741208 -564.332425 -603.579147 -644.455502 -686.923265 -730.931044 -776.413765 -823.292602 -871.475532 -920.858601 -971.327759 -1022.760444 -1075.024511 -1127.968226 -1181.386270 -1234.932009 -1287.936574 -1339.361743 -1388.312844 -1434.210915 -1475.730772 -1509.546828 -1528.736479 -1519.275239 -1456.120811 -1313.400766 -1113.792143 -937.987122 -803.063598 -650.017577 -458.061306 -298.868833 -218.212820 -174.979596 -102.507892 40.099021 214.711315 346.576637 432.401613 515.782286 646.141101 877.797020 1255.673991 1769.257641 2355.266771 2966.805139 3582.771297 4183.967388 4758.223681 5315.227476 5873.538895 6439.550516 7009.693357 7582.875483 8149.005702 8696.748357 9234.300904 9772.565322 10314.398622 10849.239199 11360.480363 11842.895003 12298.468947 12724.308458 13111.648645 13448.488831 13721.330270 13916.930582 14038.817291 14098.090393 14108.321221 14108.321221 14108.321221 -10.853862 -10.853862 -10.853862 -10.952135 -12.052944 -14.886268 -18.079642 -21.689478 -25.681692 -30.044012 -34.793048 -39.961624 -45.590677 -51.725482 -58.414083 -65.706626 -73.655047 -82.312877 -91.735083 -101.977894 -113.098608 -125.155374 -138.206932 -152.312328 -167.530584 -183.920344 -201.539481 -220.444665 -240.690909 -262.331075 -285.415352 -309.990695 -336.100239 -363.782667 -393.071539 -423.994568 -456.572841 -490.819975 -526.741208 -564.332425 -603.579147 -644.455502 -686.923265 -730.931044 -776.413765 -823.292602 -871.475532 -920.858601 -971.327759 -1022.760444 -1075.024511 -1127.968226 -1181.386270 -1234.932009 -1287.936574 -1339.361743 -1388.312844 -1434.210915 -1475.730772 -1509.546828 -1528.736479 -1519.275239 -1456.120811 -1313.400766 -1113.792143 -937.987122 -803.063598 -650.017577 -458.061306 -298.868833 -218.212820 -174.979596 -102.507892 40.099021 214.711315 346.576637 432.401613 515.782286 646.141101 877.797020 1255.673991 1769.257641 2355.266771 2966.805139 3582.771297 4183.967388 4758.223681 5315.227476 5873.538895 6439.550516 7009.693357 7582.875483 8149.005702 8696.748357 9234.300904 9772.565322 10314.398622 10849.239199 11360.480363 11842.895003 12298.468947 12724.308458 13111.648645 13448.488831 13721.330270 13916.930582 14038.817291 14098.090393 14108.321221 14108.321221 14108.321221 -10.853862 -10.853862 -10.853862 -10.952135 -12.052944 -14.886268 -18.079642 -21.689478 -25.681692 -30.044012 -34.793048 -39.961624 -45.590677 -51.725482 -58.414083 -65.706626 -73.655047 -82.312877 -91.735083 -101.977894 -113.098608 -125.155374 -138.206932 -152.312328 -167.530584 -183.920344 -201.539481 -220.444665 -240.690909 -262.331075 -285.415352 -309.990695 -336.100239 -363.782667 -393.071539 -423.994568 -456.572841 -490.819975 -526.741208 -564.332425 -603.579147 -644.455502 -686.923265 -730.931044 -776.413765 -823.292602 -871.475532 -920.858601 -971.327759 -1022.760444 -1075.024511 -1127.968226 -1181.386270 -1234.932009 -1287.936574 -1339.361743 -1388.312844 -1434.210915 -1475.730772 -1509.546828 -1528.736479 -1519.275239 -1456.120811 -1313.400766 -1113.792143 -937.987122 -803.063598 -650.017577 -458.061306 -298.868833 -218.212820 -174.979596 -102.507892 40.099021 214.711315 346.576637 432.401613 515.782286 646.141101 877.797020 1255.673991 1769.257641 2355.266771 2966.805139 3582.771297 4183.967388 4758.223681 5315.227476 5873.538895 6439.550516 7009.693357 7582.875483 8149.005702 8696.748357 9234.300904 9772.565322 10314.398622 10849.239199 11360.480363 11842.895003 12298.468947 12724.308458 13111.648645 13448.488831 13721.330270 13916.930582 14038.817291 14098.090393 14108.321221 14108.321221 14108.321221 -10.811642 -10.811642 -10.811642 -10.908140 -12.001478 -14.816754 -18.019079 -21.652957 -25.662621 -30.032869 -34.784857 -39.954223 -45.583176 -51.717513 -58.405486 -65.697325 -73.644999 -82.302054 -91.723462 -101.965457 -113.085343 -125.141272 -138.191987 -152.296538 -167.513954 -183.902884 -201.521204 -220.425595 -240.671074 -262.310512 -285.394103 -309.968812 -336.077783 -363.759709 -393.048160 -423.970858 -456.548904 -490.795927 -526.717179 -564.308562 -603.555609 -644.432466 -686.900924 -730.909608 -776.393468 -823.273729 -871.458490 -920.844128 -971.317460 -1022.758180 -1075.039887 -1128.025106 -1181.541834 -1235.309898 -1288.677929 -1340.448547 -1389.594735 -1435.957937 -1478.642607 -1514.878015 -1538.715912 -1537.537835 -1484.245875 -1353.996520 -1122.633422 -924.469220 -808.198965 -663.931002 -430.726092 -268.009180 -204.142192 -183.962361 -126.252326 26.070785 236.131222 366.023372 438.041320 505.173506 617.007447 832.611602 1216.108078 1756.864620 2366.157332 2994.666978 3626.196972 4235.308949 4805.098347 5356.428410 5915.553606 6484.780063 7053.059566 7628.600719 8197.859571 8738.548267 9268.711424 9798.456036 10338.673617 10877.284466 11389.147090 11873.069334 12333.795760 12764.693191 13157.160504 13498.806262 13774.743733 13967.670006 14077.350518 14126.179063 14135.691962 14135.691962 14135.691962 -10.351632 -10.351632 -10.351632 -10.428188 -11.373629 -13.896433 -17.240976 -21.265243 -25.470702 -29.922583 -34.703617 -39.880521 -45.508311 -51.637905 -58.319581 -65.604371 -73.544571 -82.193867 -91.607300 -101.841149 -112.952754 -125.000306 -138.042590 -152.138699 -167.347714 -183.728336 -201.338504 -220.234959 -240.472788 -262.104935 -285.181672 -309.750046 -335.853290 -363.530190 -392.814417 -423.733806 -456.309575 -490.555484 -526.476925 -564.069949 -603.320247 -644.202119 -686.677517 -730.695237 -776.190470 -823.084918 -871.287880 -920.698915 -971.213256 -1022.732482 -1075.186229 -1128.578307 -1183.084512 -1239.192740 -1297.827675 -1354.223171 -1404.102709 -1454.953949 -1510.135541 -1572.569353 -1647.477981 -1741.790880 -1882.944197 -1935.631645 -1165.530409 -697.524528 -899.216665 -921.118264 -98.907957 271.109476 -33.870792 -292.009694 -529.395068 -172.868831 591.094862 636.119204 504.613427 386.124639 273.833288 225.274221 639.872957 1647.640420 2544.654478 3393.622743 4248.844472 4959.537773 5442.623158 5915.386312 6521.057608 7135.194799 7631.781250 8213.214551 8825.993866 9260.124387 9703.867212 10113.998891 10637.340730 11248.377501 11757.144198 12254.926131 12784.854079 13255.861971 13677.126689 14055.802863 14355.053362 14488.513393 14484.715458 14440.216145 14434.725112 14434.725112 14434.725112 -9.689130 -9.689130 -9.689130 -9.749300 -10.440932 -12.266832 -15.539834 -20.585818 -25.189230 -29.774966 -34.602921 -39.793529 -45.421979 -51.546955 -58.221773 -65.498668 -73.430417 -82.070907 -91.475278 -101.699865 -112.802053 -124.840077 -137.872770 -151.959276 -167.158731 -183.529901 -201.130791 -220.018213 -240.247335 -261.871182 -284.940114 -309.501273 -335.597990 -363.269160 -392.548569 -423.464176 -456.037335 -490.281955 -526.203588 -563.798455 -603.052428 -643.939994 -686.423299 -730.451375 -775.959767 -822.870933 -871.096049 -920.539584 -971.109587 -1022.740757 -1075.447681 -1129.452377 -1185.501613 -1245.711359 -1315.985572 -1376.255789 -1422.296732 -1477.192108 -1546.834492 -1639.901191 -1775.293803 -1984.533720 -2386.730959 -2398.678108 -743.797708 -196.736167 -1070.365950 -1497.933312 57.768252 980.917892 220.165468 -454.161460 -1136.657076 -420.710434 1155.889096 1042.877994 590.080457 243.380084 -177.569456 -835.020924 -294.715901 1702.757426 2954.107135 4231.860284 5702.050947 6664.394953 6584.253530 7012.628721 7907.256477 8740.680454 8564.403350 9177.326002 10095.973032 9965.835354 10918.887748 10583.228099 11178.474244 12203.258248 12335.552305 12836.191480 13709.507217 13882.377556 14155.256668 14532.095093 14525.081324 14669.414544 14647.569589 14845.668705 14853.930749 14853.930749 14853.930749 -9.593695 -9.593695 -9.593695 -9.651611 -10.311230 -12.007414 -8.918813 -8.918813 -8.918813 -8.956869 -9.388907 -10.331529 -7.848907 -7.848907 -7.848907 -7.865809 -8.046522 -8.353267 -6.856251 -6.856251 -6.856251 -6.862692 -6.926418 -7.031783 -5.963358 -5.963358 -5.963358 -5.965100 -5.981749 -6.012680 -5.171136 -5.171136 -5.171136 -5.171056 -5.169895 -5.173197 -4.473467 -4.473467 -4.473467 -4.472749 -4.465426 -4.458918 -3.861786 -3.861786 -3.861786 -3.860895 -3.851933 -3.842471 -3.327148 -3.327148 -3.327148 -3.326260 -3.317362 -3.307544 -2.861008 -2.861008 -2.861008 -2.860184 -2.851948 -2.842713 -2.455489 -2.455489 -2.455489 -2.454748 -2.447342 -2.438983 -2.103447 -2.103447 -2.103447 -2.102790 -2.096219 -2.088783 -1.798456 -1.798456 -1.798456 -1.797877 -1.792089 -1.785531 -1.534762 -1.534762 -1.534762 -1.534254 -1.529178 -1.523424 -1.307234 -1.307234 -1.307234 -1.306789 -1.302352 -1.297320 -1.111307 -1.111307 -1.111307 -1.110920 -1.107050 -1.102662 -0.942934 -0.942934 -0.942934 -0.942597 -0.939231 -0.935414 -0.798532 -0.798532 -0.798532 -0.798240 -0.795318 -0.792005 -0.674940 -0.674940 -0.674940 -0.674687 -0.672156 -0.669287 -0.569373 -0.569373 -0.569373 -0.569154 -0.566967 -0.564488 -0.479386 -0.479386 -0.479386 -0.479197 -0.477311 -0.475174 -0.402836 -0.402836 -0.402836 -0.402673 -0.401051 -0.399212 -0.337849 -0.337849 -0.337849 -0.337710 -0.336317 -0.334739 -0.282793 -0.282793 -0.282793 -0.282673 -0.281480 -0.280128 -0.236244 -0.236244 -0.236244 -0.236142 -0.235122 -0.233966 -0.196969 -0.196969 -0.196969 -0.196882 -0.196012 -0.195027 -0.163900 -0.163900 -0.163900 -0.163826 -0.163086 -0.162247 -0.136114 -0.136114 -0.136114 -0.136051 -0.135422 -0.134710 -0.112814 -0.112814 -0.112814 -0.112761 -0.112228 -0.111625 -0.093318 -0.093318 -0.093318 -0.093273 -0.092822 -0.092312 -0.077037 -0.077037 -0.077037 -0.076999 -0.076619 -0.076188 -0.063469 -0.063469 -0.063469 -0.063437 -0.063118 -0.062756 -0.052187 -0.052187 -0.052187 -0.052160 -0.051892 -0.051588 -0.042824 -0.042824 -0.042824 -0.042802 -0.042577 -0.042322 -0.035071 -0.035071 -0.035071 -0.035052 -0.034864 -0.034651 -0.028664 -0.028664 -0.028664 -0.028648 -0.028491 -0.028313 -0.023380 -0.023380 -0.023380 -0.023366 -0.023236 -0.023088 -0.019031 -0.019031 -0.019031 -0.019020 -0.018912 -0.018789 -0.015460 -0.015460 -0.015460 -0.015451 -0.015361 -0.015259 -0.012534 -0.012534 -0.012534 -0.012526 -0.012452 -0.012368 -0.010141 -0.010141 -0.010141 -0.010135 -0.010073 -0.010004 -0.008188 -0.008188 -0.008188 -0.008183 -0.008132 -0.008075 -0.006598 -0.006598 -0.006598 -0.006593 -0.006552 -0.006505 -0.005305 -0.005305 -0.005305 -0.005302 -0.005268 -0.005229 -0.004258 -0.004258 -0.004258 -0.004255 -0.004227 -0.004195 -0.003410 -0.003410 -0.003410 -0.003407 -0.003385 -0.003359 -0.002725 -0.002725 -0.002725 -0.002723 -0.002705 -0.002684 -0.002173 -0.002173 -0.002173 -0.002172 -0.002157 -0.002140 -0.001730 -0.001730 -0.001730 -0.001729 -0.001716 -0.001703 -0.001374 -0.001374 -0.001374 -0.001373 -0.001363 -0.001352 -0.001089 -0.001089 -0.001089 -0.001088 -0.001080 -0.001071 -0.000862 -0.000862 -0.000862 -0.000861 -0.000854 -0.000847 -0.000680 -0.000680 -0.000680 -0.000680 -0.000674 -0.000669 -0.000536 -0.000536 -0.000536 -0.000535 -0.000531 -0.000527 -0.000421 -0.000421 -0.000421 -0.000421 -0.000418 -0.000414 -0.000330 -0.000330 -0.000330 -0.000330 -0.000327 -0.000325 -0.000259 -0.000259 -0.000259 -0.000258 -0.000256 -0.000254 -0.000202 -0.000202 -0.000202 -0.000202 -0.000200 -0.000198 -0.000158 -0.000158 -0.000158 -0.000157 -0.000156 -0.000155 -0.000123 -0.000123 -0.000123 -0.000122 -0.000121 -0.000120 -0.000095 -0.000095 -0.000095 -0.000095 -0.000094 -0.000093 -0.000074 -0.000074 -0.000074 -0.000074 -0.000073 -0.000072 -0.000057 -0.000057 -0.000057 -0.000057 -0.000056 -0.000056 -0.000044 -0.000044 -0.000044 -0.000044 -0.000044 -0.000043 -0.000034 -0.000034 -0.000034 -0.000034 -0.000034 -0.000033 -0.000026 -0.000026 -0.000026 -0.000026 -0.000026 -0.000025 -0.000020 -0.000020 -0.000020 -0.000020 -0.000020 -0.000020 -0.000015 -0.000015 -0.000015 -0.000015 -0.000015 -0.000015 -0.000012 -0.000012 -0.000012 -0.000012 -0.000012 -0.000011 -0.000009 -0.000009 -0.000009 -0.000009 -0.000009 -0.000009 -0.000007 -0.000007 -0.000007 -0.000007 -0.000007 -0.000007 -0.000005 -0.000005 -0.000005 -0.000005 -0.000005 -0.000005 -0.000004 -0.000004 -0.000004 -0.000004 -0.000004 -0.000004 -0.000003 -0.000003 -0.000003 -0.000003 -0.000003 -0.000003 -0.000002 -0.000002 -0.000002 -0.000002 -0.000002 -0.000002 -0.000002 -0.000002 -0.000002 -0.000002 -0.000002 -0.000002 -0.000001 -0.000001 -0.000001 -0.000001 -0.000001 -0.000001 -0.000001 -0.000001 -0.000001 -0.000001 -0.000001 -0.000001 -0.000001 -0.000001 -0.000001 -0.000001 -0.000001 -0.000001 -0.000001 -0.000001 -0.000001 -0.000001 -0.000001 -0.000001 -0.000000 -0.000000 -0.000000 -0.000000 -0.000000 -0.000000 -0.000000 -0.000000 -0.000000 -0.000000 -0.000000 -0.000000 -0.000000 -0.000000 -0.000000 -0.000000 -0.000000 -0.000000 -0.000000 -0.000000 -0.000000 -0.000000 -0.000000 -0.000000 -0.000000 -0.000000 -0.000000 -0.000000 -0.000000 -0.000000 -0.000000 -0.000000 -0.000000 -0.000000 -0.000000 -0.000000 -0.000000 -0.000000 -0.000000 -0.000000 -0.000000 -0.000000 -0.000000 -0.000000 -0.000000 -0.000000 -0.000000 -0.000000 -0.000000 -0.000000 -0.000000 -0.000000 -0.000000 -0.000000 -0.000000 -0.000000 -0.000000 -0.000000 -0.000000 -0.000000 -0.000000 -0.000000 -0.000000 -0.000000 -0.000000 -0.000000 -0.000000 -0.000000 -0.000000 -0.000000 -0.000000 -0.000000 -0.000000 -0.000000 -0.000000 -0.000000 -0.000000 -0.000000 -0.000000 -0.000000 -0.000000 -0.000000 -0.000000 -0.000000 -0.000000 -0.000000 -0.000000 -0.000000 -0.000000 -0.000000 -0.000000 -0.000000 -0.000000 -0.000000 -0.000000 -0.000000 -0.000000 -0.000000 -0.000000 -0.000000 -0.000000 -0.000000 -0.000000 -0.000000 -0.000000 -0.000000 -0.000000 -0.000000 -0.000000 -0.000000 -0.000000 -0.000000 -0.000000 -0.000000 -0.000000 -0.000000 -0.000000 -0.000000 -0.000000 -0.000000 -0.000000 -0.000000 -0.000000 -0.000000 -0.000000 -0.000000 -0.000000 -0.000000 -0.000000 -0.000000 -0.000000 -0.000000 -0.000000 -0.000000 -0.000000 -0.000000 -0.000000 -0.000000 -0.000000 -0.000000 -0.000000 -0.000000 -0.000000 -0.000000 -0.000000 -0.000000 -0.000000 -0.000000 -0.000000 -0.000000 -0.000000 -0.000000 -0.000000 -0.000000 -0.000000 -0.000000 -0.000000 -0.000000 -0.000000 -0.000000 -0.000000 -0.000000 -0.000000 -0.000000 -0.000000 -0.000000 -0.000000 -0.000000 -0.000000 -0.000000 -0.000000 -0.000000 -0.000000 -0.000000 -0.000000 -0.000000 -0.000000 -0.000000 -0.000000 -0.000000 -0.000000 -0.000000 -0.000000 -0.000000 -0.000000 -0.000000 -0.000000 -0.000000 -0.000000 -0.000000 -0.000000 -0.000000 -0.000000 -0.000000 -0.000000 -0.000000 -0.000000 -0.000000 -0.000000 -0.000000 -0.000000 -0.000000 -0.000000 -0.000000 -0.000000 -0.000000 -0.000000 -0.000000 -0.000000 -0.000000 -0.000000 -0.000000 -0.000000 -0.000000 -0.000000 -0.000000 -0.000000 -0.000000 -0.000000 -0.000000 -0.000000 -0.000000 -0.000000 -0.000000 -0.000000 -0.000000 -0.000000 -0.000000 -0.000000 -0.000000 -0.000000 -0.000000 -0.000000 -0.000000 -0.000000 -0.000000 -0.000000 -0.000000 -0.000000 -0.000000 -0.000000 -0.000000 -0.000000 -0.000000 -0.000000 -0.000000 -0.000000 -0.000000 -0.000000 -0.000000 -0.000000 -0.000000 -0.000000 -0.000000 -0.000000 -0.000000 -0.000000 -0.000000 -0.000000 -0.000000 -0.000000 -0.000000 -0.000000 -0.000000 -0.000000 -0.000000 -0.000000 -0.000000 -0.000000 -0.000000 -0.000000 -0.000000 -0.000000 -0.000000 -0.000000 -0.000000 -0.000000 -0.000000 -0.000000 -0.000000 -0.000000 -0.000000 -0.000000 -0.000000 -0.000000 -0.000000 -0.000000 -0.000000 -0.000000 -0.000000 -0.000000 -0.000000 -0.000000 -0.000000 -0.000000 -0.000000 -0.000000 -0.000000 -0.000000 -0.000000 -0.000000 -0.000000 -0.000000 -0.000000 -0.000000 -0.000000 -0.000000 -0.000000 -0.000000 -0.000000 -0.000000 -0.000000 -0.000000 -0.000000 -0.000000 -0.000000 -0.000000 -0.000000 -0.000000 -0.000000 -0.000000 -0.000000 -0.000000 -0.000000 -0.000000 -0.000000 -0.000000 -0.000000 -0.000000 -0.000000 -0.000000 -0.000000 -0.000000 -0.000000 -0.000000 -0.000000 -0.000000 -0.000000 -0.000000 -0.000000 -0.000000 -0.000000 -0.000000 -0.000000 -0.000000 -0.000000 -0.000000 -0.000000 -0.000000 -0.000000 -0.000000 -0.000000 -0.000000 -0.000000 -0.000000 -0.000000 -0.000000 -0.000000 -0.000000 -0.000000 -0.000000 -0.000000 -0.000000 -0.000000 -0.000000 -0.000000 -0.000000 -0.000000 -0.000000 -0.000000 -0.000000 -0.000000 -0.000000 -0.000000 -0.000000 -0.000000 -0.000000 -0.000000 -0.000000 -0.000000 -0.000000 -0.000000 -0.000000 -0.000000 0.000000 0.000000 0.000000 0.000000 0.000000 0.000000 0.000000 0.000000 0.000000 0.000000 0.000000 0.000000 0.000000 0.000000 0.000000 0.000000 0.000000 0.000000 0.000000 0.000000 0.000000 0.000000 0.000000 0.000000 0.000000 0.000000 0.000000 0.000000 0.000000 0.000000 0.000000 0.000000 0.000000 0.000000 0.000000 0.000000 0.000000 0.000000 0.000000 0.000000 0.000000 0.000000 0.000000 0.000000 0.000000 0.000000 0.000000 0.000000 0.000000 0.000000 0.000000 0.000000 0.000000 0.000000 0.000000 0.000000 0.000000 0.000000 0.000000 0.000000 0.000000 0.000000 0.000000 0.000000 0.000000 0.000000 0.000000 0.000000 0.000000 0.000000 0.000000 0.000000 0.000001 0.000001 0.000001 0.000001 0.000001 0.000001 0.000001 0.000001 0.000001 0.000001 0.000001 0.000001 0.000001 0.000001 0.000001 0.000001 0.000001 0.000001 0.000002 0.000002 0.000002 0.000002 0.000002 0.000002 0.000003 0.000003 0.000003 0.000003 0.000003 0.000003 0.000004 0.000004 0.000004 0.000004 0.000004 0.000004 0.000006 0.000006 0.000006 0.000006 0.000006 0.000006 0.000008 0.000008 0.000008 0.000008 0.000008 0.000008 0.000012 0.000012 0.000012 0.000012 0.000012 0.000012 0.000017 0.000017 0.000017 0.000017 0.000017 0.000017 0.000025 0.000025 0.000025 0.000025 0.000024 0.000024 0.000036 0.000036 0.000036 0.000036 0.000035 0.000034 0.000051 0.000051 0.000051 0.000051 0.000050 0.000049 0.000072 0.000072 0.000072 0.000072 0.000071 0.000069 0.000102 0.000102 0.000102 0.000101 0.000100 0.000098 0.000143 0.000143 0.000143 0.000143 0.000141 0.000138 0.000201 0.000201 0.000201 0.000201 0.000197 0.000194 0.000281 0.000281 0.000281 0.000280 0.000276 0.000272 0.000391 0.000391 0.000391 0.000390 0.000385 0.000378 0.000542 0.000542 0.000542 0.000542 0.000534 0.000525 0.000749 0.000749 0.000749 0.000748 0.000738 0.000726 0.001031 0.001031 0.001031 0.001030 0.001016 0.001001 0.001414 0.001414 0.001414 0.001412 0.001394 0.001373 0.001931 0.001931 0.001931 0.001929 0.001904 0.001877 0.002627 0.002627 0.002627 0.002624 0.002591 0.002555 0.003559 0.003559 0.003559 0.003555 0.003512 0.003464 0.004803 0.004803 0.004803 0.004797 0.004741 0.004677 0.006455 0.006455 0.006455 0.006447 0.006374 0.006291 0.008640 0.008640 0.008640 0.008630 0.008534 0.008426 0.011517 0.011517 0.011517 0.011505 0.011381 0.011242 0.015291 0.015291 0.015291 0.015275 0.015115 0.014936 0.020218 0.020218 0.020218 0.020197 0.019993 0.019763 0.026621 0.026621 0.026621 0.026595 0.026336 0.026045 0.034908 0.034908 0.034908 0.034876 0.034550 0.034184 0.045585 0.045585 0.045585 0.045544 0.045140 0.044690 0.059275 0.059275 0.059275 0.059227 0.058739 0.058204 0.076748 0.076748 0.076748 0.076693 0.076137 0.075548 0.098934 0.098934 0.098934 0.098880 0.098328 0.097804 0.126940 0.126940 0.126940 0.126910 0.126590 0.126483 0.162038 0.162038 0.162038 0.162097 0.162642 0.163921 0.205577 0.205577 0.205577 0.205895 0.208977 0.214232 0.258716 0.258716 0.258716 0.259700 0.269564 0.285789 0.321747 0.321747 0.321747 0.324221 0.350801 0.397987 0.392970 0.392970 0.392970 0.398015 0.456336 0.605189 0.468031 0.468031 0.468031 0.476009 0.572770 0.847139 1.276320 1.816015 2.363988 2.968302 3.654704 4.442012 5.346738 6.384502 7.570376 8.918746 10.442926 12.154595 14.063116 16.174726 18.491635 21.011028 23.724019 26.614549 29.658296 32.821612 36.060549 39.320018 42.533142 45.620848 48.491767 51.042481 53.158156 54.713601 55.574756 55.600613 54.645544 52.561987 49.203439 44.427660 38.099998 30.096737 20.308346 8.642533 -4.973009 -20.588277 -38.229190 -57.896563 -79.566134 -103.190115 -128.701171 -156.020571 -185.074230 -215.825278 -248.343442 -282.959301 -320.615547 -363.672875 -417.754789 -495.956775 -628.519877 -885.972716 -1439.151611 -2806.475752 -1494.830450 2741.475876 2341.361657 1107.879096 585.974553 157.041676 -468.752212 -1794.262476 -3955.567037 688.841765 5791.144588 4209.118356 3522.576510 3282.821466 2856.795376 2161.307745 2799.947018 3783.992559 4063.818135 4018.730833 4319.369806 6220.891783 7894.381990 7221.014367 8067.364968 8917.734830 9091.977633 10862.801308 11984.431182 11304.426057 11467.225556 12366.372403 12789.872972 12850.835823 13071.899373 13491.905914 13491.051864 11911.230520 12699.756072 13616.682950 14801.742499 14626.924738 14159.864879 15479.052419 15878.757518 15878.757518 15878.757518 0.543202 0.543202 0.543202 0.553172 0.675322 0.999261 1.394567 1.860709 2.388429 2.986847 3.672228 4.460426 5.366820 6.406548 7.594444 8.944744 10.470641 12.183700 14.093156 16.205110 18.521624 21.039728 23.750372 26.637335 29.676137 32.832987 36.063811 39.313424 42.514887 45.589112 48.444766 50.978522 53.075702 54.611333 55.451639 55.455953 54.479043 52.373789 48.994158 44.198401 37.852362 29.832807 20.030666 8.354075 -5.268877 -20.887810 -38.528226 -58.190357 -79.848850 -103.453559 -128.931765 -156.192375 -185.133234 -215.654375 -247.684843 -281.242751 -316.577059 -354.504271 -397.191593 -449.909529 -524.665269 -646.251864 -848.940889 -1105.004065 -479.339045 1019.150774 1096.140558 801.704044 574.637242 381.938479 140.579397 -145.994254 -110.217428 1413.153384 3007.910333 3279.907355 3327.683720 3400.285718 3444.159401 3549.414942 3915.485671 4424.498718 4836.374214 5175.374368 5669.677289 6438.757467 7179.283632 7715.485938 8378.383564 9096.074427 9724.497603 10567.076114 11207.624031 11515.554845 12016.564356 12527.469469 12915.658585 13191.693090 13500.533490 13926.872097 13821.889708 13253.733166 13586.145813 13632.427071 13998.276676 14039.789332 14682.693501 15854.291355 16059.245531 16059.245531 16059.245531 0.585303 0.585303 0.585303 0.596613 0.727337 1.064748 1.449870 1.896943 2.412679 3.006861 3.691836 4.481327 5.389736 6.431751 7.621969 8.974474 10.502327 12.216960 14.127467 16.239795 18.555834 21.072437 23.780369 26.663224 29.696344 32.845771 36.067290 39.305608 42.493716 45.552509 48.390695 50.905055 52.981088 54.494073 55.310554 55.290258 54.288403 52.158371 48.754670 43.936109 37.569096 29.530947 19.713115 8.024221 -5.607206 -21.230374 -38.870360 -58.526831 -80.173427 -103.757829 -129.202327 -156.404322 -185.235437 -215.536738 -247.105858 -279.669415 -312.830249 -345.970670 -378.070168 -407.329669 -430.291086 -439.398692 -415.727135 -301.543854 -21.253618 324.602122 516.381231 565.282732 568.859756 579.151990 632.077330 784.305936 1138.895306 1741.677178 2369.070571 2830.631929 3180.295300 3490.905580 3793.271844 4123.362777 4517.374318 4960.600745 5413.061824 5870.466663 6364.679849 6913.066730 7485.912928 8063.058204 8667.048218 9286.951983 9903.248697 10514.433524 11089.572273 11618.664916 12125.086752 12590.714003 12984.098759 13317.021893 13617.793376 13884.327190 14098.068451 14317.164872 14601.797110 14856.035236 15138.626729 15404.706423 15797.146330 16115.365528 16173.172782 16173.172782 16173.172782 0.591160 0.591160 0.591160 0.602846 0.734188 1.072756 1.457147 1.902326 2.416684 3.010330 3.695306 4.485055 5.393837 6.436265 7.626901 8.979800 10.508002 12.222916 14.133610 16.246002 18.561953 21.078285 23.785728 26.667844 29.699943 32.848038 36.067888 39.304179 42.489892 45.545919 48.380975 50.891860 52.964106 54.473034 55.285249 55.260547 54.254227 52.119760 48.711751 43.889109 37.518342 29.476866 19.656227 7.965131 -5.667814 -21.291744 -38.931667 -58.587157 -80.231700 -103.812636 -129.251478 -156.443828 -185.257194 -215.523388 -247.019428 -279.426247 -312.245547 -344.635581 -375.080161 -400.696136 -415.752816 -408.611155 -356.512178 -222.733784 11.331521 274.216041 452.602757 533.414037 568.398535 608.889683 701.545569 901.186234 1262.786034 1776.467619 2317.749989 2778.575063 3160.442120 3503.217856 3838.620968 4196.278760 4597.830454 5038.317859 5496.862278 5967.086862 6462.265049 6991.878918 7547.852852 8122.100407 8715.984446 9321.740906 9925.526090 10518.133094 11086.467133 11624.620727 12131.460704 12590.693816 12986.799249 13326.720329 13627.657094 13897.613633 14145.433098 14409.189582 14710.293561 15010.122828 15294.369928 15583.822893 15905.686120 16143.665984 16189.399999 16189.399999 16189.399999 0.591160 0.591160 0.591160 0.602846 0.734188 1.072756 1.457147 1.902326 2.416684 3.010330 3.695306 4.485055 5.393837 6.436265 7.626901 8.979800 10.508002 12.222916 14.133610 16.246002 18.561953 21.078285 23.785728 26.667844 29.699943 32.848038 36.067888 39.304179 42.489892 45.545919 48.380975 50.891860 52.964106 54.473034 55.285249 55.260547 54.254227 52.119760 48.711751 43.889109 37.518342 29.476866 19.656227 7.965131 -5.667814 -21.291744 -38.931667 -58.587157 -80.231700 -103.812636 -129.251478 -156.443828 -185.257194 -215.523388 -247.019428 -279.426247 -312.245547 -344.635581 -375.080161 -400.696136 -415.752816 -408.611155 -356.512178 -222.733784 11.331521 274.216041 452.602757 533.414037 568.398535 608.889683 701.545569 901.186234 1262.786034 1776.467619 2317.749989 2778.575063 3160.442120 3503.217856 3838.620968 4196.278760 4597.830454 5038.317859 5496.862278 5967.086862 6462.265049 6991.878918 7547.852852 8122.100407 8715.984446 9321.740906 9925.526090 10518.133094 11086.467133 11624.620727 12131.460704 12590.693816 12986.799249 13326.720329 13627.657094 13897.613633 14145.433098 14409.189582 14710.293561 15010.122828 15294.369928 15583.822893 15905.686120 16143.665984 16189.399999 16189.399999 16189.399999 0.591160 0.591160 0.591160 0.602846 0.734188 1.072756 1.457147 1.902326 2.416684 3.010330 3.695306 4.485055 5.393837 6.436265 7.626901 8.979800 10.508002 12.222916 14.133610 16.246002 18.561953 21.078285 23.785728 26.667844 29.699943 32.848038 36.067888 39.304179 42.489892 45.545919 48.380975 50.891860 52.964106 54.473034 55.285249 55.260547 54.254227 52.119760 48.711751 43.889109 37.518342 29.476866 19.656227 7.965131 -5.667814 -21.291744 -38.931667 -58.587157 -80.231700 -103.812636 -129.251478 -156.443828 -185.257194 -215.523388 -247.019428 -279.426247 -312.245547 -344.635581 -375.080161 -400.696136 -415.752816 -408.611155 -356.512178 -222.733784 11.331521 274.216041 452.602757 533.414037 568.398535 608.889683 701.545569 901.186234 1262.786034 1776.467619 2317.749989 2778.575063 3160.442120 3503.217856 3838.620968 4196.278760 4597.830454 5038.317859 5496.862278 5967.086862 6462.265049 6991.878918 7547.852852 8122.100407 8715.984446 9321.740906 9925.526090 10518.133094 11086.467133 11624.620727 12131.460704 12590.693816 12986.799249 13326.720329 13627.657094 13897.613633 14145.433098 14409.189582 14710.293561 15010.122828 15294.369928 15583.822893 15905.686120 16143.665984 16189.399999 16189.399999 16189.399999 -1387.911381 -1433.758679 -1491.747561 -1566.418364 -1668.716042 -1821.643359 -2058.282701 -2497.879650 -2093.029017 -318.397672 -288.570568 -1272.796183 -1412.077128 379.655070 894.418753 76.817857 -621.446079 -1206.899683 -48.747111 1319.489007 960.227332 523.584171 153.694261 -360.858923 -1063.993396 30.709360 2131.451492 3296.931743 5025.336221 6394.282344 7128.051337 6795.330177 7282.254157 8535.800085 8956.015408 8654.350287 9581.784886 10206.974322 10152.625164 11175.173281 10676.055528 11647.351025 12617.069535 12481.947853 13261.596141 13940.161723 13998.026602 14277.523501 14595.306950 14445.551450 14618.819400 14669.791269 14904.491250 14907.954616 14907.954616 14907.954616 -2078.365154 204.191427 4010.082104 16039.064665 17902.340455 16271.038409 16877.547473 17382.685389 18167.500166 17708.370618 18839.746309 16436.897412 18798.041186 17932.707452 17316.639445 18427.477492 17371.908044 18038.293746 17666.403359 18258.378618 17558.208615 17268.554392 16980.856627 16442.157438 17453.904641 16517.237415 17845.062835 16320.924412 17378.282973 19192.429756 19506.893180 17287.517762 17025.588362 17601.780360 17056.274632 18248.356221 17437.460377 19510.703682 17817.182720 18344.267305 17937.384804 18839.932045 17677.484712 18235.916454 17420.856703 17236.253547 14967.630503 18101.324049 15820.324172 18556.917135 19431.391931 15485.429122 15259.797408 15247.508836 15247.508836 15247.508836 -74.269876 1898.736160 15561.317912 4231.415848 16295.057496 17028.606929 15904.609411 16513.008813 17513.929508 15975.093908 18279.804745 18211.403205 17543.767697 17545.157728 15670.776088 17757.441805 16010.619694 18755.716062 15519.395329 17243.736688 16920.574529 18093.655652 17387.496423 19494.397133 17828.369467 18433.390755 17065.704209 16732.034963 16681.885097 19483.896303 13883.615074 15556.734262 17939.384998 17470.248754 19430.699838 15925.377322 18065.407683 15479.057267 17805.746819 19156.433372 17923.651494 14432.577480 16359.712805 17650.442863 16854.034298 16381.437843 17292.298650 17609.614534 15039.319083 20478.084047 16873.205176 16642.008083 15864.504593 15728.378589 15728.378589 15728.378589 414.769694 2591.227314 15952.729098 16593.464570 16812.606037 16397.967937 16935.013720 15468.883502 16386.400020 18155.898181 16841.412555 16790.474078 15874.948738 16609.327727 17421.029198 15375.957319 17323.791713 16939.340642 15820.506670 16013.780735 17609.142080 17300.480040 11126.645450 17380.946826 17412.966027 16411.460126 17399.496865 16379.940770 19432.928343 18011.575965 19101.924973 15719.195147 16836.704680 16174.981065 16655.362527 15835.797551 15879.463119 16834.235765 16252.961930 14808.113014 15571.369835 15353.953833 15585