<VTKFile type="PolyData">
<PolyData>
<Piece NumberOfPoints="8632" NumberOfVerts="8632" NumberOfLines="0" NumberOfStrips="0" NumberOfPolys="0">
<PointData>
<DataArray type="Float64" Name="Pressure" format="ascii">
 -1.915560 -1.915560 -1.915560 -1.945778 -2.285416 -3.167028 -4.178667 -5.352527 -6.694363 -8.217861 -9.947118 -11.913115 -14.151538 -16.701907 -19.607336 -22.914569 -26.674091 -30.940262 -35.771435 -41.230044 -47.382650 -54.299951 -62.056731 -70.731765 -80.407655 -91.170620 -103.110204 -116.318936 -130.891902 -146.926258 -164.520653 -183.774578 -204.787606 -227.658542 -252.484433 -279.359449 -308.373606 -339.611313 -373.149740 -409.057012 -447.390272 -488.193661 -531.496348 -577.310763 -625.631269 -676.433524 -729.674777 -785.295206 -843.219915 -903.360020 -965.608317 -1029.817958 -1095.736258 -1162.836045 -1229.953175 -1294.999922 -1355.387639 -1407.849317 -1445.990735 -1456.412994 -1412.606248 -1284.365526 -1098.710773 -942.945353 -827.385169 -692.363255 -527.079308 -412.181053 -386.244244 -398.466643 -383.085674 -316.710461 -261.800350 -278.716054 -316.299787 -278.426216 -98.264053 217.215197 566.765562 837.419276 1048.358098 1353.742718 1859.477698 2514.281255 3182.000808 3783.281642 4340.786678 4882.818135 5419.291470 5965.782282 6524.317777 7085.339208 7645.852775 8207.049896 8768.204328 9317.415729 9839.595813 10338.839826 10824.015181 11266.489298 11632.200008 11932.118396 12176.838112 12359.355492 12485.632200 12552.964421 12550.375739 12516.017266 12506.888546 12506.888546 12506.888546 -1.915560 -1.915560 -1.915560 -1.945778 -2.285416 -3.167028 -4.178667 -5.352527 -6.694363 -8.217861 -9.947118 -11.913115 -14.151538 -16.701907 -19.607336 -22.914569 -26.674091 -30.940262 -35.771435 -41.230044 -47.382650 -54.299951 -62.056731 -70.731765 -80.407655 -91.170620 -103.110204 -116.318936 -130.891902 -146.926258 -164.520653 -183.774578 -204.787606 -227.658542 -252.484433 -279.359449 -308.373606 -339.611313 -373.149740 -409.057012 -447.390272 -488.193661 -531.496348 -577.310763 -625.631269 -676.433524 -729.674777 -785.295206 -843.219915 -903.360020 -965.608317 -1029.817958 -1095.736258 -1162.836045 -1229.953175 -1294.999922 -1355.387639 -1407.849317 -1445.990735 -1456.412994 -1412.606248 -1284.365526 -1098.710773 -942.945353 -827.385169 -692.363255 -527.079308 -412.181053 -386.244244 -398.466643 -383.085674 -316.710461 -261.800350 -278.716054 -316.299787 -278.426216 -98.264053 217.215197 566.765562 837.419276 1048.358098 1353.742718 1859.477698 2514.281255 3182.000808 3783.281642 4340.786678 4882.818135 5419.291470 5965.782282 6524.317777 7085.339208 7645.852775 8207.049896 8768.204328 9317.415729 9839.595813 10338.839826 10824.015181 11266.489298 11632.200008 11932.118396 12176.838112 12359.355492 12485.632200 12552.964421 12550.375739 12516.017266 12506.888546 12506.888546 12506.888546 -1.915560 -1.915560 -1.915560 -1.945778 -2.285416 -3.167028 -4.178667 -5.352527 -6.694363 -8.217861 -9.947118 -11.913115 -14.151538 -16.701907 -19.607336 -22.914569 -26.674091 -30.940262 -35.771435 -41.230044 -47.382650 -54.299951 -62.056731 -70.731765 -80.407655 -91.170620 -103.110204 -116.318936 -130.891902 -146.926258 -164.520653 -183.774578 -204.787606 -227.658542 -252.484433 -279.359449 -308.373606 -339.611313 -373.149740 -409.057012 -447.390272 -488.193661 -531.496348 -577.310763 -625.631269 -676.433524 -729.674777 -785.295206 -843.219915 -903.360020 -965.608317 -1029.817958 -1095.736258 -1162.836045 -1229.953175 -1294.999922 -1355.387639 -1407.849317 -1445.990735 -1456.412994 -1412.606248 -1284.365526 -1098.710773 -942.945353 -827.385169 -692.363255 -527.079308 -412.181053 -386.244244 -398.466643 -383.085674 -316.710461 -261.800350 -278.716054 -316.299787 -278.426216 -98.264053 217.215197 566.765562 837.419276 1048.358098 1353.742718 1859.477698 2514.281255 3182.000808 3783.281642 4340.786678 4882.818135 5419.291470 5965.782282 6524.317777 7085.339208 7645.852775 8207.049896 8768.204328 9317.415729 9839.595813 10338.839826 10824.015181 11266.489298 11632.200008 11932.118396 12176.838112 12359.355492 12485.632200 12552.964421 12550.375739 12516.017266 12506.888546 12506.888546 12506.888546 -1.905187 -1.905187 -1.905187 -1.934798 -2.271745 -3.147125 -4.160604 -5.341116 -6.687792 -8.213326 -9.943136 -11.909023 -14.147043 -16.696863 -19.601655 -22.908184 -26.666940 -30.932287 -35.762577 -41.220243 -47.371848 -54.288088 -62.043751 -70.717611 -80.392276 -91.153967 -103.092234 -116.299611 -130.871190 -146.904135 -164.497105 -183.749600 -204.761207 -227.630742 -252.455268 -279.328974 -308.341896 -339.578465 -373.115876 -409.022284 -447.354861 -488.157779 -531.460239 -577.274710 -625.595605 -676.398683 -729.641436 -785.264666 -843.195098 -903.348016 -965.626786 -1029.910823 -1096.009680 -1163.527168 -1231.399669 -1297.437207 -1358.994317 -1413.750005 -1456.569027 -1475.217501 -1438.600166 -1321.984762 -1107.980647 -923.962841 -833.924233 -715.259145 -513.331104 -383.719410 -373.775696 -408.205694 -401.379429 -309.643542 -224.426298 -258.591840 -326.276748 -314.193441 -138.627267 207.185387 599.852892 866.210573 1013.207299 1262.013874 1771.466801 2477.525975 3197.677973 3808.624216 4366.138809 4907.167358 5431.485021 5973.462459 6538.766513 7102.965297 7664.997467 8226.545534 8790.750208 9345.579054 9874.057719 10379.807861 10884.782367 11348.839389 11712.359819 12002.367351 12240.955546 12409.966291 12535.350588 12609.036942 12592.948210 12537.065601 12523.789775 12523.789775 12523.789775 -1.792968 -1.792968 -1.792968 -1.816307 -2.105645 -2.882073 -3.927626 -5.220098 -6.621675 -8.168322 -9.903526 -11.868213 -14.102155 -16.646473 -19.544892 -22.844377 -26.595485 -30.852593 -35.674055 -41.122299 -47.263890 -54.169530 -61.914019 -70.576153 -80.238568 -90.987524 -102.912618 -116.106440 -130.664152 -146.682993 -164.261713 -183.499915 -204.497303 -227.352829 -252.163710 -279.024312 -308.024873 -339.250054 -372.777305 -408.675063 -447.000798 -487.798995 -531.099182 -576.914188 -625.238938 -676.050168 -729.307713 -784.958417 -842.944714 -903.222340 -965.797658 -1030.809152 -1098.705748 -1170.540949 -1248.410319 -1326.669168 -1399.022373 -1477.759076 -1571.537512 -1687.289160 -1847.321753 -1959.851017 -1219.354801 -704.762772 -969.944848 -1096.534003 -298.887753 92.483350 -228.313537 -535.604650 -763.321757 -269.948643 372.358012 23.148647 -449.452699 -785.444061 -725.780792 72.620091 1106.472508 1446.716989 640.880615 75.846373 602.283550 2036.257357 3533.043006 4233.675956 4717.894127 5244.791611 5543.831876 5984.713963 6655.302526 7255.008532 7822.340240 8388.319473 8967.695403 9572.190840 10168.579211 10748.792732 11507.007482 12298.878982 12656.779072 12805.363995 12989.663914 12968.706291 13116.192280 13364.895706 13148.814507 12794.217569 12717.100483 12717.100483 12717.100483 -1.634269 -1.634269 -1.634269 -1.652375 -1.860938 -2.413823 -3.419064 -5.011282 -6.528072 -8.110794 -9.856172 -11.820976 -14.050851 -16.589137 -19.480402 -22.771916 -26.514345 -30.762096 -35.573526 -41.011062 -47.141269 -54.034858 -61.766642 -70.415442 -80.063926 -90.798398 -102.708509 -115.886913 -130.428848 -146.431643 -163.994148 -183.216084 -204.197287 -227.036864 -251.832205 -278.677878 -307.664352 -338.876547 -372.392205 -408.280086 -446.598005 -487.390818 -530.688449 -576.504209 -624.833758 -675.655326 -728.932363 -784.620955 -842.687360 -903.148380 -966.166084 -1032.276426 -1102.958247 -1182.123035 -1280.393599 -1370.875689 -1448.000826 -1552.743135 -1706.532601 -1943.072118 -2373.565718 -2395.192938 -694.081425 -162.153241 -1190.981449 -1619.269979 78.121378 846.335726 -15.410527 -743.707295 -1431.825488 -402.310368 1209.796978 465.420351 -606.670795 -1629.404439 -2203.607569 -847.262033 2346.827551 3521.462560 351.769983 -2163.448635 -1683.430093 814.851332 4992.801400 5356.635089 4859.407004 6100.809044 5279.295937 5070.410719 6842.892137 6944.536857 7627.992169 8349.330433 9313.753389 9495.898861 10527.967355 11079.790728 11844.097539 13575.426298 14160.722695 13466.758079 14297.958796 13219.810294 13738.900878 15094.727528 14167.415726 13126.098321 12994.696797 12994.696797 12994.696797 -1.611977 -1.611977 -1.611977 -1.629342 -1.827562 -2.340035 -1.458593 -1.458593 -1.458593 -1.469909 -1.598470 -1.879225 -1.223240 -1.223240 -1.223240 -1.228259 -1.281606 -1.372136 -1.013605 -1.013605 -1.013605 -1.015496 -1.034203 -1.065139 -0.833850 -0.833850 -0.833850 -0.834374 -0.839392 -0.848600 -0.682530 -0.682530 -0.682530 -0.682538 -0.682519 -0.683839 -0.556476 -0.556476 -0.556476 -0.556313 -0.554644 -0.553273 -0.452155 -0.452155 -0.452155 -0.451952 -0.449914 -0.447809 -0.366225 -0.366225 -0.366225 -0.366031 -0.364082 -0.361956 -0.295717 -0.295717 -0.295717 -0.295546 -0.293830 -0.291919 -0.238063 -0.238063 -0.238063 -0.237917 -0.236458 -0.234820 -0.191075 -0.191075 -0.191075 -0.190953 -0.189734 -0.188360 -0.152902 -0.152902 -0.152902 -0.152801 -0.151792 -0.150653 -0.121988 -0.121988 -0.121988 -0.121905 -0.121075 -0.120138 -0.097032 -0.097032 -0.097032 -0.096964 -0.096285 -0.095517 -0.076949 -0.076949 -0.076949 -0.076893 -0.076340 -0.075714 -0.060839 -0.060839 -0.060839 -0.060793 -0.060344 -0.059835 -0.047956 -0.047956 -0.047956 -0.047919 -0.047555 -0.047144 -0.037686 -0.037686 -0.037686 -0.037657 -0.037363 -0.037031 -0.029526 -0.029526 -0.029526 -0.029502 -0.029266 -0.028999 -0.023062 -0.023062 -0.023062 -0.023043 -0.022854 -0.022640 -0.017959 -0.017959 -0.017959 -0.017944 -0.017792 -0.017622 -0.013942 -0.013942 -0.013942 -0.013930 -0.013810 -0.013674 -0.010790 -0.010790 -0.010790 -0.010781 -0.010685 -0.010578 -0.008326 -0.008326 -0.008326 -0.008318 -0.008243 -0.008158 -0.006404 -0.006404 -0.006404 -0.006398 -0.006339 -0.006272 -0.004911 -0.004911 -0.004911 -0.004906 -0.004860 -0.004807 -0.003755 -0.003755 -0.003755 -0.003751 -0.003714 -0.003673 -0.002862 -0.002862 -0.002862 -0.002859 -0.002830 -0.002798 -0.002174 -0.002174 -0.002174 -0.002172 -0.002150 -0.002125 -0.001647 -0.001647 -0.001647 -0.001645 -0.001628 -0.001609 -0.001244 -0.001244 -0.001244 -0.001242 -0.001229 -0.001214 -0.000936 -0.000936 -0.000936 -0.000935 -0.000925 -0.000913 -0.000703 -0.000703 -0.000703 -0.000702 -0.000694 -0.000685 -0.000526 -0.000526 -0.000526 -0.000525 -0.000519 -0.000512 -0.000392 -0.000392 -0.000392 -0.000392 -0.000387 -0.000382 -0.000291 -0.000291 -0.000291 -0.000291 -0.000288 -0.000284 -0.000216 -0.000216 -0.000216 -0.000216 -0.000213 -0.000210 -0.000160 -0.000160 -0.000160 -0.000159 -0.000157 -0.000155 -0.000118 -0.000118 -0.000118 -0.000117 -0.000116 -0.000114 -0.000086 -0.000086 -0.000086 -0.000086 -0.000085 -0.000084 -0.000063 -0.000063 -0.000063 -0.000063 -0.000062 -0.000061 -0.000046 -0.000046 -0.000046 -0.000046 -0.000045 -0.000045 -0.000034 -0.000034 -0.000034 -0.000034 -0.000033 -0.000033 -0.000024 -0.000024 -0.000024 -0.000024 -0.000024 -0.000024 -0.000018 -0.000018 -0.000018 -0.000018 -0.000017 -0.000017 -0.000013 -0.000013 -0.000013 -0.000013 -0.000012 -0.000012 -0.000009 -0.000009 -0.000009 -0.000009 -0.000009 -0.000009 -0.000007 -0.000007 -0.000007 -0.000007 -0.000006 -0.000006 -0.000005 -0.000005 -0.000005 -0.000005 -0.000005 -0.000005 -0.000003 -0.000003 -0.000003 -0.000003 -0.000003 -0.000003 -0.000002 -0.000002 -0.000002 -0.000002 -0.000002 -0.000002 -0.000002 -0.000002 -0.000002 -0.000002 -0.000002 -0.000002 -0.000001 -0.000001 -0.000001 -0.000001 -0.000001 -0.000001 -0.000001 -0.000001 -0.000001 -0.000001 -0.000001 -0.000001 -0.000001 -0.000001 -0.000001 -0.000001 -0.000001 -0.000001 -0.000000 -0.000000 -0.000000 -0.000000 -0.000000 -0.000000 -0.000000 -0.000000 -0.000000 -0.000000 -0.000000 -0.000000 -0.000000 -0.000000 -0.000000 -0.000000 -0.000000 -0.000000 -0.000000 -0.000000 -0.000000 -0.000000 -0.000000 -0.000000 -0.000000 -0.000000 -0.000000 -0.000000 -0.000000 -0.000000 -0.000000 -0.000000 -0.000000 -0.000000 -0.000000 -0.000000 -0.000000 -0.000000 -0.000000 -0.000000 -0.000000 -0.000000 -0.000000 -0.000000 -0.000000 -0.000000 -0.000000 -0.000000 -0.000000 -0.000000 -0.000000 -0.000000 -0.000000 -0.000000 -0.000000 -0.000000 -0.000000 -0.000000 -0.000000 -0.000000 -0.000000 -0.000000 -0.000000 -0.000000 -0.000000 -0.000000 -0.000000 -0.000000 -0.000000 -0.000000 -0.000000 -0.000000 -0.000000 -0.000000 -0.000000 -0.000000 -0.000000 -0.000000 -0.000000 -0.000000 -0.000000 -0.000000 -0.000000 -0.000000 -0.000000 -0.000000 -0.000000 -0.000000 -0.000000 -0.000000 -0.000000 -0.000000 -0.000000 -0.000000 -0.000000 -0.000000 -0.000000 -0.000000 -0.000000 -0.000000 -0.000000 -0.000000 -0.000000 -0.000000 -0.000000 -0.000000 -0.000000 -0.000000 -0.000000 -0.000000 -0.000000 -0.000000 -0.000000 -0.000000 -0.000000 -0.000000 -0.000000 -0.000000 -0.000000 -0.000000 -0.000000 -0.000000 -0.000000 -0.000000 -0.000000 -0.000000 -0.000000 -0.000000 -0.000000 -0.000000 -0.000000 -0.000000 -0.000000 -0.000000 -0.000000 -0.000000 -0.000000 -0.000000 -0.000000 -0.000000 -0.000000 -0.000000 -0.000000 -0.000000 -0.000000 -0.000000 -0.000000 -0.000000 -0.000000 -0.000000 -0.000000 -0.000000 -0.000000 -0.000000 -0.000000 -0.000000 -0.000000 -0.000000 -0.000000 -0.000000 -0.000000 -0.000000 -0.000000 -0.000000 -0.000000 -0.000000 -0.000000 -0.000000 -0.000000 -0.000000 -0.000000 -0.000000 -0.000000 -0.000000 -0.000000 -0.000000 -0.000000 -0.000000 -0.000000 -0.000000 -0.000000 -0.000000 -0.000000 -0.000000 -0.000000 -0.000000 -0.000000 -0.000000 -0.000000 -0.000000 -0.000000 -0.000000 -0.000000 -0.000000 -0.000000 -0.000000 -0.000000 -0.000000 -0.000000 -0.000000 -0.000000 -0.000000 -0.000000 -0.000000 -0.000000 -0.000000 -0.000000 -0.000000 -0.000000 -0.000000 -0.000000 -0.000000 -0.000000 -0.000000 -0.000000 -0.000000 -0.000000 -0.000000 -0.000000 -0.000000 -0.000000 -0.000000 -0.000000 -0.000000 -0.000000 -0.000000 -0.000000 -0.000000 -0.000000 -0.000000 -0.000000 -0.000000 -0.000000 -0.000000 -0.000000 -0.000000 -0.000000 -0.000000 -0.000000 -0.000000 -0.000000 -0.000000 -0.000000 -0.000000 -0.000000 -0.000000 -0.000000 -0.000000 -0.000000 -0.000000 -0.000000 -0.000000 -0.000000 -0.000000 -0.000000 -0.000000 -0.000000 -0.000000 -0.000000 -0.000000 -0.000000 -0.000000 -0.000000 -0.000000 -0.000000 -0.000000 -0.000000 -0.000000 -0.000000 -0.000000 -0.000000 -0.000000 -0.000000 -0.000000 -0.000000 -0.000000 -0.000000 -0.000000 -0.000000 -0.000000 -0.000000 -0.000000 -0.000000 -0.000000 -0.000000 -0.000000 -0.000000 -0.000000 -0.000000 -0.000000 -0.000000 -0.000000 -0.000000 -0.000000 -0.000000 -0.000000 -0.000000 -0.000000 -0.000000 -0.000000 -0.000000 -0.000000 -0.000000 -0.000000 -0.000000 -0.000000 -0.000000 -0.000000 -0.000000 -0.000000 -0.000000 -0.000000 -0.000000 -0.000000 -0.000000 -0.000000 -0.000000 -0.000000 -0.000000 -0.000000 -0.000000 -0.000000 -0.000000 -0.000000 -0.000000 -0.000000 -0.000000 -0.000000 -0.000000 -0.000000 -0.000000 -0.000000 -0.000000 -0.000000 -0.000000 -0.000000 -0.000000 -0.000000 -0.000000 -0.000000 -0.000000 -0.000000 -0.000000 -0.000000 -0.000000 -0.000000 -0.000000 -0.000000 -0.000000 -0.000000 -0.000000 -0.000000 -0.000000 -0.000000 -0.000000 -0.000000 -0.000000 -0.000000 -0.000000 -0.000000 -0.000000 -0.000000 -0.000000 -0.000000 -0.000000 -0.000000 -0.000000 -0.000000 -0.000000 -0.000000 -0.000000 -0.000000 -0.000000 -0.000000 -0.000000 -0.000000 -0.000000 -0.000000 -0.000000 -0.000000 -0.000000 -0.000000 -0.000000 -0.000000 -0.000000 -0.000000 -0.000000 -0.000000 -0.000000 -0.000000 -0.000000 -0.000000 -0.000000 -0.000000 -0.000000 -0.000000 -0.000000 -0.000000 -0.000000 -0.000000 -0.000000 -0.000000 -0.000000 -0.000000 -0.000000 -0.000000 -0.000000 -0.000000 -0.000000 -0.000000 -0.000000 -0.000000 -0.000000 -0.000000 -0.000000 -0.000000 -0.000000 -0.000000 -0.000000 -0.000000 -0.000000 -0.000000 -0.000000 -0.000000 -0.000000 -0.000000 -0.000000 -0.000000 -0.000000 -0.000000 -0.000000 -0.000000 -0.000000 -0.000000 -0.000000 -0.000000 -0.000000 -0.000000 -0.000000 -0.000000 -0.000000 -0.000000 -0.000000 -0.000000 -0.000000 -0.000000 -0.000000 -0.000000 -0.000000 -0.000000 -0.000000 -0.000000 -0.000000 -0.000000 -0.000000 -0.000000 -0.000000 -0.000000 -0.000000 -0.000000 -0.000000 -0.000000 -0.000000 -0.000000 -0.000000 -0.000000 -0.000000 -0.000000 -0.000000 -0.000000 -0.000000 -0.000000 -0.000000 -0.000000 -0.000000 -0.000000 -0.000000 -0.000000 -0.000000 -0.000000 -0.000000 -0.000000 -0.000000 -0.000000 -0.000000 -0.000000 -0.000000 -0.000000 -0.000000 -0.000000 -0.000000 -0.000000 -0.000000 -0.000000 -0.000000 -0.000000 -0.000000 -0.000000 -0.000000 -0.000000 -0.000000 -0.000000 -0.000000 -0.000000 -0.000000 -0.000000 -0.000000 -0.000000 -0.000000 -0.000000 -0.000000 -0.000000 -0.000000 -0.000000 -0.000000 -0.000000 -0.000000 -0.000000 -0.000000 -0.000000 -0.000000 -0.000000 -0.000000 -0.000000 -0.000000 -0.000000 -0.000000 -0.000000 -0.000000 -0.000000 -0.000000 -0.000000 -0.000000 -0.000000 -0.000000 -0.000000 -0.000000 -0.000000 -0.000000 -0.000000 -0.000000 -0.000000 -0.000000 -0.000000 -0.000000 -0.000000 -0.000000 -0.000000 -0.000000 -0.000000 -0.000000 -0.000000 -0.000000 -0.000000 -0.000000 -0.000000 -0.000000 -0.000000 -0.000000 -0.000000 -0.000000 -0.000000 -0.000000 -0.000000 -0.000000 -0.000000 -0.000000 -0.000000 -0.000000 -0.000000 -0.000000 -0.000000 -0.000000 -0.000000 -0.000000 -0.000000 -0.000000 -0.000000 -0.000000 -0.000000 -0.000000 -0.000000 -0.000000 -0.000000 -0.000000 -0.000000 -0.000000 -0.000000 -0.000000 -0.000000 -0.000000 -0.000000 -0.000000 -0.000000 -0.000000 -0.000000 -0.000000 -0.000000 -0.000000 -0.000000 -0.000000 -0.000000 -0.000000 -0.000000 -0.000000 -0.000000 -0.000000 -0.000000 -0.000000 -0.000000 -0.000000 -0.000000 -0.000000 -0.000000 -0.000000 -0.000000 -0.000000 -0.000000 -0.000000 -0.000000 -0.000000 -0.000000 -0.000000 -0.000000 -0.000000 -0.000000 -0.000000 -0.000000 -0.000000 -0.000000 -0.000000 -0.000000 -0.000000 -0.000000 -0.000000 -0.000000 -0.000000 -0.000000 -0.000000 -0.000000 -0.000000 -0.000000 -0.000000 -0.000000 -0.000000 -0.000000 -0.000000 -0.000000 -0.000000 -0.000000 -0.000000 -0.000000 -0.000000 -0.000000 -0.000000 -0.000000 -0.000000 -0.000000 -0.000000 -0.000000 -0.000000 -0.000000 -0.000000 -0.000000 -0.000000 -0.000000 -0.000000 -0.000000 -0.000000 -0.000000 -0.000000 -0.000000 -0.000000 -0.000000 -0.000000 -0.000000 -0.000000 -0.000000 -0.000000 -0.000000 -0.000000 -0.000000 -0.000000 -0.000000 -0.000000 -0.000000 -0.000000 -0.000000 -0.000000 -0.000000 -0.000000 -0.000000 -0.000000 -0.000000 -0.000000 -0.000000 -0.000000 -0.000000 -0.000000 -0.000000 -0.000000 -0.000000 -0.000000 -0.000000 -0.000000 -0.000000 -0.000000 -0.000000 -0.000000 -0.000000 -0.000000 -0.000000 -0.000000 -0.000000 -0.000000 -0.000000 -0.000000 -0.000000 -0.000000 -0.000000 -0.000000 -0.000000 -0.000000 -0.000000 -0.000000 -0.000000 -0.000000 -0.000000 -0.000000 -0.000000 -0.000000 -0.000000 -0.000000 -0.000000 -0.000000 -0.000000 -0.000000 -0.000000 -0.000000 -0.000000 -0.000000 -0.000000 -0.000000 -0.000000 -0.000000 -0.000000 -0.000000 -0.000000 -0.000000 -0.000000 -0.000000 -0.000000 -0.000000 -0.000000 -0.000000 -0.000000 -0.000000 -0.000000 -0.000000 -0.000000 -0.000000 -0.000000 -0.000001 -0.000001 -0.000001 -0.000001 -0.000001 -0.000001 -0.000001 -0.000001 -0.000001 -0.000001 -0.000001 -0.000001 -0.000001 -0.000001 -0.000001 -0.000001 -0.000001 -0.000001 -0.000001 -0.000001 -0.000001 -0.000001 -0.000001 -0.000001 -0.000001 -0.000001 -0.000001 -0.000001 -0.000001 -0.000001 -0.000001 -0.000001 -0.000001 -0.000001 -0.000001 -0.000001 -0.000000 -0.000000 -0.000000 -0.000000 -0.000001 -0.000001 0.000000 0.000000 0.000000 0.000000 0.000000 0.000000 0.000001 0.000001 0.000001 0.000001 0.000001 0.000001 0.000003 0.000003 0.000003 0.000003 0.000003 0.000003 0.000006 0.000006 0.000006 0.000006 0.000006 0.000006 0.000011 0.000011 0.000011 0.000011 0.000011 0.000012 0.000019 0.000019 0.000019 0.000019 0.000020 0.000021 0.000030 0.000030 0.000030 0.000031 0.000033 0.000037 0.000046 0.000046 0.000046 0.000047 0.000055 0.000067 0.000069 0.000069 0.000069 0.000070 0.000091 0.000128 0.000096 0.000096 0.000096 0.000100 0.000147 0.000271 0.000127 0.000127 0.000127 0.000134 0.000215 0.000457 0.000879 0.001509 0.002329 0.003499 0.005233 0.007851 0.011856 0.018039 0.027643 0.042606 0.065920 0.102140 0.158098 0.243853 0.373941 0.568908 0.857126 1.276797 1.877945 2.724132 3.893512 5.478777 7.585652 10.329818 13.832647 18.216936 23.604744 30.120352 37.901626 47.122147 58.023583 70.952529 86.388751 104.944072 127.306081 154.102558 185.674323 221.766687 261.177768 301.424926 338.493587 366.700141 378.615572 364.826961 312.982973 204.950706 9.986069 -328.889812 -917.335894 -1939.557664 -3708.569345 -6769.416985 -2776.731248 5414.431239 -1744.286461 -10984.546365 -7164.012424 -426.050622 7308.587399 -107.817958 -1869.839295 -182.991158 2820.526630 4577.906946 3971.229757 2047.173230 7303.092275 11888.460435 11505.959327 7715.191593 7281.944209 16426.471173 14821.407465 20052.275131 15236.392688 17506.841199 13823.240523 12747.339258 21103.325110 15645.759834 12259.227131 19977.860719 19240.530255 16985.512099 19440.142788 17923.381872 21248.570987 25198.488720 23011.955326 22376.600267 22804.328012 26575.974510 25146.779647 24385.978846 24459.438237 24001.907800 24033.583064 24698.316142 21210.208624 20763.241785 23705.286684 22517.413353 22356.126436 22356.126436 22356.126436 0.000160 0.000160 0.000160 0.000168 0.000275 0.000575 0.000988 0.001569 0.002390 0.003584 0.005361 0.008050 0.012168 0.018528 0.028410 0.043803 0.067774 0.104980 0.162394 0.250259 0.383337 0.582444 0.876253 1.303266 1.913770 2.771498 3.954611 5.555600 7.679765 10.442199 13.963722 18.366964 23.774710 30.313439 38.125143 47.389475 58.355297 71.375499 86.931931 105.630186 128.139740 155.057565 186.685792 222.736668 262.006335 302.083566 339.168464 368.058276 382.303529 374.431820 335.940424 256.422494 120.787003 -96.401133 -438.223542 -964.579032 -1686.357126 -2361.991912 -626.590683 1911.583934 -237.780957 -1822.676144 -1103.873611 219.461949 2982.088903 2326.267487 1863.721587 2363.899693 3911.833056 4349.370505 4994.348865 5557.470223 7348.850979 8651.335296 8505.399041 8835.986561 9921.462057 11876.776514 12720.684497 15048.227703 13927.862247 14313.958092 13937.103413 13827.538407 16138.311665 15265.567525 14059.043238 16765.964443 16727.185256 17023.929478 18096.424579 17528.934985 20177.145535 22311.944697 21700.694396 21398.632710 20700.584684 23210.940010 23470.135200 22397.870605 22046.040923 22119.617274 23241.926849 23779.559582 21779.388944 22287.131952 22905.460543 22119.862307 22045.358921 22045.358921 22045.358921 0.000179 0.000179 0.000179 0.000189 0.000306 0.000627 0.001045 0.001626 0.002459 0.003683 0.005511 0.008283 0.012534 0.019103 0.029311 0.045207 0.069944 0.108301 0.167409 0.257723 0.394265 0.598158 0.898412 1.333871 1.955114 2.826055 4.024857 5.643773 7.787613 10.570808 14.113566 18.538341 23.968743 30.533690 38.379683 47.692909 58.729795 71.849516 87.535257 106.384522 129.045454 156.079618 187.744729 223.713510 262.773094 302.575218 339.521574 368.864269 385.075982 382.497275 356.196581 302.895835 221.827464 115.791739 -6.088214 -119.719017 -165.204355 11.147715 521.899509 964.236159 951.395696 941.666861 1320.516410 1976.730144 2614.967905 2958.833737 3299.916301 3833.454950 4484.339015 5099.196206 5699.923623 6369.922365 7049.635984 7627.158656 8132.947984 8715.449654 9491.571285 10377.606496 11236.766729 11956.398050 12456.251756 12957.575206 13346.501656 13749.097214 14095.846983 14179.573606 14443.132556 15019.053745 15552.654133 16060.947391 16594.946521 17199.462831 18000.910503 18700.092904 19215.903462 19673.519399 20218.241799 20879.123554 21288.358416 21397.909371 21545.408571 21822.134858 22196.918088 22265.098533 21921.971745 21920.743660 21894.694394 21858.743220 21884.637174 21884.637174 21884.637174 0.000182 0.000182 0.000182 0.000192 0.000311 0.000634 0.001053 0.001635 0.002472 0.003701 0.005538 0.008326 0.012600 0.019208 0.029475 0.045463 0.070338 0.108903 0.168318 0.259075 0.396242 0.600997 0.902412 1.339389 1.962559 2.835869 4.037480 5.659602 7.806956 10.593859 14.140407 18.569027 24.003477 30.573103 38.425197 47.747074 58.796451 71.933543 87.641670 106.516795 129.203178 156.256026 187.925076 223.875795 262.893029 302.637954 339.544062 368.935620 385.431078 383.655908 359.236740 310.004894 237.408775 148.549967 60.132612 6.141262 47.394118 263.433417 647.101478 978.142550 1113.185242 1260.945570 1611.731179 2126.761644 2639.612352 3042.884907 3457.718452 3980.520079 4580.233019 5186.703702 5794.570542 6413.968329 7008.229631 7552.098688 8088.963567 8696.709199 9419.066946 10213.430112 10992.910065 11680.726325 12256.188213 12778.671312 13215.083850 13592.411293 13895.364908 14116.966093 14443.042123 14919.993978 15413.422262 15913.248878 16447.411138 17050.082744 17737.461099 18383.492089 18949.323861 19509.832508 20107.600090 20680.036356 21075.083598 21320.680277 21551.246157 21813.812913 22047.494614 22098.701007 21971.864064 21866.156818 21846.111789 21860.207324 21863.252098 21863.252098 21863.252098 0.000182 0.000182 0.000182 0.000192 0.000311 0.000634 0.001053 0.001635 0.002472 0.003701 0.005538 0.008326 0.012600 0.019208 0.029475 0.045463 0.070338 0.108903 0.168318 0.259075 0.396242 0.600997 0.902412 1.339389 1.962559 2.835869 4.037480 5.659602 7.806956 10.593859 14.140407 18.569027 24.003477 30.573103 38.425197 47.747074 58.796451 71.933543 87.641670 106.516795 129.203178 156.256026 187.925076 223.875795 262.893029 302.637954 339.544062 368.935620 385.431078 383.655908 359.236740 310.004894 237.408775 148.549967 60.132612 6.141262 47.394118 263.433417 647.101478 978.142550 1113.185242 1260.945570 1611.731179 2126.761644 2639.612352 3042.884907 3457.718452 3980.520079 4580.233019 5186.703702 5794.570542 6413.968329 7008.229631 7552.098688 8088.963567 8696.709199 9419.066946 10213.430112 10992.910065 11680.726325 12256.188213 12778.671312 13215.083850 13592.411293 13895.364908 14116.966093 14443.042123 14919.993978 15413.422262 15913.248878 16447.411138 17050.082744 17737.461099 18383.492089 18949.323861 19509.832508 20107.600090 20680.036356 21075.083598 21320.680277 21551.246157 21813.812913 22047.494614 22098.701007 21971.864064 21866.156818 21846.111789 21860.207324 21863.252098 21863.252098 21863.252098 0.000182 0.000182 0.000182 0.000192 0.000311 0.000634 0.001053 0.001635 0.002472 0.003701 0.005538 0.008326 0.012600 0.019208 0.029475 0.045463 0.070338 0.108903 0.168318 0.259075 0.396242 0.600997 0.902412 1.339389 1.962559 2.835869 4.037480 5.659602 7.806956 10.593859 14.140407 18.569027 24.003477 30.573103 38.425197 47.747074 58.796451 71.933543 87.641670 106.516795 129.203178 156.256026 187.925076 223.875795 262.893029 302.637954 339.544062 368.935620 385.431078 383.655908 359.236740 310.004894 237.408775 148.549967 60.132612 6.141262 47.394118 263.433417 647.101478 978.142550 1113.185242 1260.945570 1611.731179 2126.761644 2639.612352 3042.884907 3457.718452 3980.520079 4580.233019 5186.703702 5794.570542 6413.968329 7008.229631 7552.098688 8088.963567 8696.709199 9419.066946 10213.430112 10992.910065 11680.726325 12256.188213 12778.671312 13215.083850 13592.411293 13895.364908 14116.966093 14443.042123 14919.993978 15413.422262 15913.248878 16447.411138 17050.082744 17737.461099 18383.492089 18949.323861 19509.832508 20107.600090 20680.036356 21075.083598 21320.680277 21551.246157 21813.812913 22047.494614 22098.701007 21971.864064 21866.156818 21846.111789 21860.207324 21863.252098 21863.252098 21863.252098 -1390.321420 -1470.087855 -1585.355854 -1757.979682 -2023.740491 -2482.348690 -2032.465872 -195.897613 -267.493391 -1411.561835 -1432.258765 481.444478 747.228467 -169.921699 -931.063630 -1487.731274 15.252495 1285.544453 244.878264 -812.875276 -2033.713543 -2514.640108 -776.569712 3415.430393 3488.253422 -463.425835 -3290.760747 -1985.330350 1257.775135 6409.310806 5251.204181 5087.957924 6060.456036 4869.269538 5221.204185 7000.913986 6957.601060 7881.979655 8747.202750 9386.503246 9633.338018 10894.251137 11196.128571 12183.143591 14123.366356 13945.629484 13616.300675 14408.489144 13012.058577 14265.866576 15369.503034 13879.077369 13095.502475 13026.901453 13026.901453 13026.901453 -2354.794599 -531.829034 7044.171175 18132.331549 15784.305916 13206.635419 16605.469646 17906.250153 14403.781600 15995.521579 14849.243786 18980.694836 13190.513786 15234.858813 13496.380164 13904.433793 13525.614246 15702.185217 16257.447577 13338.238687 15393.864321 15764.019836 12520.904891 12805.931001 12017.290590 12766.222921 15817.729321 11955.065723 10240.668570 14294.552799 13695.474246 15523.090779 13808.729517 10864.109490 11568.410239 11255.065266 14008.525363 13764.710645 15255.283766 14457.594938 11220.857255 15261.853684 12030.390938 14153.057265 13556.422827 15464.075733 11991.668647 14470.411468 10654.098478 14521.036581 14526.938984 13004.610463 13057.858835 13208.555083 13208.555083 13208.555083 219.024560 -2308.976240 15169.375013 6457.206130 11872.345232 17544.886827 17217.462698 14207.101622 18149.763994 16614.249662 14827.102622 16156.876225 14548.715901 14603.994201 15697.076342 15208.486854 13707.785290 14188.503478 18306.613690 14248.284608 14757.806148 12343.716992 12662.500670 11941.422075 12894.722445 11193.265560 14999.387241 15164.222130 12679.999264 11364.782991 12966.532328 10612.954973 13696.160994 12115.179174 11283.603773 11497.053164 13508.981859 13408.037910 10454.170438 13366.957881 11899.748713 12023.874851 9762.150793 14533.266190 11441.608674 10201.456922 11827.695365 13731.233329 11827.177563 15876.989207 14394.569887 13896.164117 13434.055345 13487.009851 13487.009851 13487.009851 1901.737220 4188.437443 17423.573828 15836.955056 12190.468615 14220.594896 15970.617429 15404.428733 15963.008353 16482.798007 16605.579441 16924.458307 15494.783427 16551.213537 16063.450447 15564.706915 17002.028814 15511.429875 16999.272185 18284.189084 18987.798857 16194.428503 11409.236800 15998.727966 14335.333228 14581.787723 15699.795600 15649.9305