<VTKFile type="PolyData">
<PolyData>
<Piece NumberOfPoints="8632" NumberOfVerts="8632" NumberOfLines="0" NumberOfStrips="0" NumberOfPolys="0">
<PointData>
<DataArray type="Float64" Name="Pressure" format="ascii">
 -0.001543 -0.001543 -0.001543 -0.001652 -0.002908 -0.006403 -0.011059 -0.017636 -0.027029 -0.040494 -0.059795 -0.087357 -0.126488 -0.181655 -0.258840 -0.365981 -0.513512 -0.715012 -0.987976 -1.354707 -1.843342 -2.488993 -3.334982 -4.434162 -5.850247 -7.659120 -9.950023 -12.826550 -16.407347 -20.826410 -26.232892 -32.790363 -40.675472 -50.076051 -61.188754 -74.216414 -89.365369 -106.843121 -126.856669 -149.611912 -175.314355 -204.171239 -236.394872 -272.206603 -311.840455 -355.544996 -403.581597 -456.216770 -513.705251 -576.257967 -643.981893 -716.760040 -793.992439 -874.018029 -952.864614 -1022.535801 -1070.460502 -1078.850487 -1019.522304 -875.104667 -697.753955 -556.409433 -427.958267 -278.259995 -166.723928 -147.735215 -172.634566 -160.192880 -86.509164 -24.387112 -19.741274 -6.464617 74.653797 171.566815 229.250703 303.206432 429.097743 533.246007 574.395617 611.049492 726.872714 941.129377 1173.694535 1371.529778 1596.367332 1943.206393 2414.755378 2912.283610 3434.895306 4075.368697 4819.854845 5563.103546 6267.692967 6971.175985 7692.866434 8386.586240 9012.301922 9602.193428 10187.475872 10748.586984 11262.344552 11727.627819 12169.130404 12616.819116 13078.897873 13579.888848 14158.067777 14614.882575 14708.793387 14708.793387 14708.793387 -0.001543 -0.001543 -0.001543 -0.001652 -0.002908 -0.006403 -0.011059 -0.017636 -0.027029 -0.040494 -0.059795 -0.087357 -0.126488 -0.181655 -0.258840 -0.365981 -0.513512 -0.715012 -0.987976 -1.354707 -1.843342 -2.488993 -3.334982 -4.434162 -5.850247 -7.659120 -9.950023 -12.826550 -16.407347 -20.826410 -26.232892 -32.790363 -40.675472 -50.076051 -61.188754 -74.216414 -89.365369 -106.843121 -126.856669 -149.611912 -175.314355 -204.171239 -236.394872 -272.206603 -311.840455 -355.544996 -403.581597 -456.216770 -513.705251 -576.257967 -643.981893 -716.760040 -793.992439 -874.018029 -952.864614 -1022.535801 -1070.460502 -1078.850487 -1019.522304 -875.104667 -697.753955 -556.409433 -427.958267 -278.259995 -166.723928 -147.735215 -172.634566 -160.192880 -86.509164 -24.387112 -19.741274 -6.464617 74.653797 171.566815 229.250703 303.206432 429.097743 533.246007 574.395617 611.049492 726.872714 941.129377 1173.694535 1371.529778 1596.367332 1943.206393 2414.755378 2912.283610 3434.895306 4075.368697 4819.854845 5563.103546 6267.692967 6971.175985 7692.866434 8386.586240 9012.301922 9602.193428 10187.475872 10748.586984 11262.344552 11727.627819 12169.130404 12616.819116 13078.897873 13579.888848 14158.067777 14614.882575 14708.793387 14708.793387 14708.793387 -0.001543 -0.001543 -0.001543 -0.001652 -0.002908 -0.006403 -0.011059 -0.017636 -0.027029 -0.040494 -0.059795 -0.087357 -0.126488 -0.181655 -0.258840 -0.365981 -0.513512 -0.715012 -0.987976 -1.354707 -1.843342 -2.488993 -3.334982 -4.434162 -5.850247 -7.659120 -9.950023 -12.826550 -16.407347 -20.826410 -26.232892 -32.790363 -40.675472 -50.076051 -61.188754 -74.216414 -89.365369 -106.843121 -126.856669 -149.611912 -175.314355 -204.171239 -236.394872 -272.206603 -311.840455 -355.544996 -403.581597 -456.216770 -513.705251 -576.257967 -643.981893 -716.760040 -793.992439 -874.018029 -952.864614 -1022.535801 -1070.460502 -1078.850487 -1019.522304 -875.104667 -697.753955 -556.409433 -427.958267 -278.259995 -166.723928 -147.735215 -172.634566 -160.192880 -86.509164 -24.387112 -19.741274 -6.464617 74.653797 171.566815 229.250703 303.206432 429.097743 533.246007 574.395617 611.049492 726.872714 941.129377 1173.694535 1371.529778 1596.367332 1943.206393 2414.755378 2912.283610 3434.895306 4075.368697 4819.854845 5563.103546 6267.692967 6971.175985 7692.866434 8386.586240 9012.301922 9602.193428 10187.475872 10748.586984 11262.344552 11727.627819 12169.130404 12616.819116 13078.897873 13579.888848 14158.067777 14614.882575 14708.793387 14708.793387 14708.793387 -0.001525 -0.001525 -0.001525 -0.001631 -0.002873 -0.006335 -0.010983 -0.017570 -0.026961 -0.040410 -0.059680 -0.087198 -0.126267 -0.181352 -0.258426 -0.365423 -0.512765 -0.714022 -0.986674 -1.353013 -1.841157 -2.486200 -3.331448 -4.429733 -5.844751 -7.652366 -9.941807 -12.816658 -16.395559 -20.812508 -26.216670 -32.771632 -40.654071 -50.051851 -61.161665 -74.186383 -89.332380 -106.807180 -126.817794 -149.570108 -175.269602 -204.123474 -236.343991 -272.152498 -311.783114 -355.484747 -403.519692 -456.156733 -513.656153 -576.242442 -644.055884 -717.061129 -794.853641 -876.210027 -957.752091 -1031.953615 -1086.593781 -1105.765516 -1052.716057 -865.338526 -670.914201 -556.046074 -441.189137 -266.391475 -132.690900 -133.109652 -186.955979 -184.593309 -83.944804 -4.924542 -24.722967 -34.956372 65.423082 184.006358 219.699513 278.681286 433.423135 553.043842 571.300227 574.274063 677.106538 917.730104 1166.075270 1334.426815 1513.668852 1844.089708 2339.137814 2816.978205 3274.308608 3897.132294 4665.200561 5404.454374 6083.559450 6774.174738 7524.136132 8259.299477 8896.560642 9481.297187 10077.074948 10647.077044 11160.171137 11612.225147 12041.244733 12515.270746 13009.904935 13523.246950 14112.122140 14589.401420 14686.945562 14686.945562 14686.945562 -0.001336 -0.001336 -0.001336 -0.001417 -0.002455 -0.005423 -0.010018 -0.016875 -0.026285 -0.039570 -0.058536 -0.085610 -0.124069 -0.178330 -0.254309 -0.359861 -0.505321 -0.704149 -0.973698 -1.336114 -1.819357 -2.458341 -3.296185 -4.385529 -5.789882 -7.584934 -9.859767 -12.717862 -16.277811 -20.673632 -26.054592 -32.584464 -40.440191 -49.809978 -60.890896 -73.886202 -89.002614 -106.447905 -126.429181 -149.152237 -174.822270 -203.646051 -235.835435 -271.611682 -311.209828 -354.882105 -402.899729 -455.553604 -513.157914 -576.068935 -644.751284 -719.970005 -803.284526 -898.055586 -1011.618690 -1139.048581 -1266.509271 -1412.244126 -1476.436855 -794.830130 -187.079446 -507.091427 -760.181578 -135.112912 438.435264 57.086915 -385.937915 -656.168591 -25.744561 431.594216 -85.866045 -554.303777 -78.802658 552.563483 87.746381 -222.114942 548.960698 930.471239 558.535025 101.667650 -74.541399 669.377806 1248.653082 945.996667 494.862038 494.353451 1618.507733 1897.968905 1352.060406 1810.619766 3135.201973 3829.992377 4122.381670 4595.224030 5696.719511 7045.686293 7802.753203 8191.400540 8854.925639 9548.590767 10090.842307 10446.160376 10656.447884 11569.164900 12580.625741 13206.030992 13730.710508 14321.761071 14461.179308 14461.179308 14461.179308 -0.001089 -0.001089 -0.001089 -0.001149 -0.001860 -0.003860 -0.008023 -0.015831 -0.025469 -0.038612 -0.057250 -0.083830 -0.121604 -0.174939 -0.249685 -0.353611 -0.496949 -0.693035 -0.959081 -1.317066 -1.794766 -2.426893 -3.256353 -4.335565 -5.727823 -7.508618 -9.766865 -12.605922 -16.144325 -20.516114 -25.870669 -32.371976 -40.197285 -49.535187 -60.583193 -73.545008 -88.627750 -106.039483 -125.987433 -148.677300 -174.313964 -203.103735 -235.258050 -270.998238 -310.560815 -354.202946 -402.208941 -454.902277 -512.677030 -576.085940 -646.080058 -724.638993 -816.398307 -932.859488 -1104.445449 -1290.863855 -1486.095187 -1814.558690 -2287.590907 -1322.818553 149.156690 -488.575291 -1370.329827 -42.021673 1319.917266 366.932233 -762.060342 -1620.938376 44.706415 1380.988031 -151.092267 -1762.764425 -375.358115 1660.784726 -206.694504 -1585.126677 984.004394 1987.076755 592.200503 -712.640030 -1764.215113 455.459160 2045.271345 579.931939 -1214.597284 -2248.014213 1264.679284 1717.876515 -2088.517237 -1716.753010 2725.566071 2429.176366 2515.844881 1687.903649 3813.122086 6054.810489 8128.202864 6650.278015 7555.817719 8246.088979 9335.696434 10043.955926 7880.833568 10122.215156 12778.439281 13116.681231 13145.398645 13994.792594 14177.159293 14177.159293 14177.159293 -0.001057 -0.001057 -0.001057 -0.001114 -0.001783 -0.003620 -0.000858 -0.000858 -0.000858 -0.000894 -0.001309 -0.002251 -0.000591 -0.000591 -0.000591 -0.000606 -0.000770 -0.001049 -0.000391 -0.000391 -0.000391 -0.000397 -0.000453 -0.000544 -0.000253 -0.000253 -0.000253 -0.000254 -0.000271 -0.000300 -0.000160 -0.000160 -0.000160 -0.000161 -0.000165 -0.000172 -0.000100 -0.000100 -0.000100 -0.000100 -0.000101 -0.000102 -0.000062 -0.000062 -0.000062 -0.000062 -0.000061 -0.000061 -0.000038 -0.000038 -0.000038 -0.000038 -0.000037 -0.000037 -0.000023 -0.000023 -0.000023 -0.000023 -0.000023 -0.000022 -0.000014 -0.000014 -0.000014 -0.000014 -0.000014 -0.000013 -0.000008 -0.000008 -0.000008 -0.000008 -0.000008 -0.000008 -0.000005 -0.000005 -0.000005 -0.000005 -0.000005 -0.000005 -0.000003 -0.000003 -0.000003 -0.000003 -0.000003 -0.000003 -0.000002 -0.000002 -0.000002 -0.000002 -0.000002 -0.000002 -0.000001 -0.000001 -0.000001 -0.000001 -0.000001 -0.000001 -0.000001 -0.000001 -0.000001 -0.000001 -0.000001 -0.000001 -0.000000 -0.000000 -0.000000 -0.000000 -0.000000 -0.000000 -0.000000 -0.000000 -0.000000 -0.000000 -0.000000 -0.000000 -0.000000 -0.000000 -0.000000 -0.000000 -0.000000 -0.000000 -0.000000 -0.000000 -0.000000 -0.000000 -0.000000 -0.000000 -0.000000 -0.000000 -0.000000 -0.000000 -0.000000 -0.000000 -0.000000 -0.000000 -0.000000 -0.000000 -0.000000 -0.000000 -0.000000 -0.000000 -0.000000 -0.000000 -0.000000 -0.000000 -0.000000 -0.000000 -0.000000 -0.000000 -0.000000 -0.000000 -0.000000 -0.000000 -0.000000 -0.000000 -0.000000 -0.000000 -0.000000 -0.000000 -0.000000 -0.000000 -0.000000 -0.000000 -0.000000 -0.000000 -0.000000 -0.000000 -0.000000 -0.000000 0.000000 0.000000 0.000000 -0.000000 0.000000 -0.000000 0.000000 0.000000 0.000000 -0.000000 0.000000 0.000000 0.000000 0.000000 0.000000 -0.000000 0.000000 0.000000 0.000000 0.000000 0.000000 -0.000000 0.000000 0.000000 0.000000 0.000000 0.000000 -0.000000 0.000000 0.000000 0.000000 0.000000 0.000000 -0.000000 0.000000 0.000000 0.000000 0.000000 0.000000 -0.000000 0.000000 0.000000 0.000000 0.000000 0.000000 -0.000000 0.000000 0.000000 0.000000 0.000000 0.000000 -0.000000 0.000000 0.000000 0.000000 0.000000 0.000000 -0.000000 0.000000 0.000000 0.000000 0.000000 0.000000 0.000000 0.000000 0.000000 0.000000 0.000000 0.000000 -0.000000 -0.000000 0.000000 -0.000000 -0.000000 -0.000000 -0.000000 -0.000000 -0.000000 -0.000000 -0.000000 -0.000000 -0.000000 -0.000000 -0.000000 -0.000000 -0.000000 -0.000000 -0.000000 -0.000000 -0.000000 -0.000000 -0.000000 -0.000000 -0.000000 -0.000000 -0.000000 -0.000000 -0.000000 -0.000000 -0.000000 -0.000000 -0.000000 -0.000000 -0.000000 -0.000000 -0.000000 -0.000000 -0.000000 -0.000000 -0.000000 -0.000000 -0.000000 -0.000000 -0.000000 -0.000000 -0.000000 -0.000000 -0.000000 -0.000000 -0.000000 -0.000000 -0.000000 -0.000000 -0.000000 -0.000000 -0.000000 -0.000000 -0.000000 -0.000000 -0.000000 -0.000000 -0.000000 -0.000000 -0.000000 -0.000000 -0.000000 -0.000000 -0.000000 -0.000000 -0.000000 -0.000000 -0.000000 -0.000000 -0.000000 -0.000000 -0.000000 -0.000000 -0.000000 -0.000000 -0.000000 -0.000000 -0.000000 -0.000000 -0.000000 -0.000000 -0.000000 -0.000000 -0.000000 -0.000000 -0.000000 -0.000000 -0.000000 -0.000000 -0.000000 -0.000000 -0.000000 -0.000000 -0.000000 -0.000000 -0.000000 -0.000000 -0.000000 -0.000000 -0.000000 -0.000000 -0.000000 -0.000000 -0.000000 -0.000000 -0.000000 -0.000000 -0.000000 -0.000000 -0.000000 -0.000000 -0.000000 -0.000000 -0.000000 -0.000000 -0.000000 -0.000000 -0.000000 -0.000000 -0.000000 -0.000000 -0.000000 -0.000000 -0.000000 -0.000000 -0.000000 -0.000000 -0.000000 -0.000000 -0.000000 -0.000000 -0.000000 -0.000000 -0.000000 -0.000000 -0.000000 -0.000000 -0.000000 -0.000000 -0.000000 -0.000000 -0.000000 -0.000000 -0.000000 -0.000000 -0.000000 -0.000000 -0.000000 -0.000000 -0.000000 -0.000000 -0.000000 -0.000000 -0.000000 -0.000000 -0.000000 -0.000000 -0.000000 -0.000000 -0.000000 -0.000000 -0.000000 -0.000000 -0.000000 -0.000000 -0.000000 -0.000000 -0.000000 -0.000000 -0.000000 -0.000000 -0.000000 -0.000000 -0.000000 -0.000000 -0.000000 -0.000000 -0.000000 -0.000000 -0.000000 -0.000000 -0.000000 -0.000000 -0.000000 -0.000000 -0.000000 -0.000000 -0.000000 -0.000000 -0.000000 -0.000000 -0.000000 -0.000000 -0.000000 -0.000000 -0.000000 -0.000000 -0.000000 -0.000000 -0.000000 -0.000000 -0.000000 -0.000000 -0.000000 -0.000000 -0.000000 -0.000000 -0.000000 -0.000000 -0.000000 -0.000000 -0.000000 -0.000000 -0.000000 -0.000000 -0.000000 -0.000000 -0.000000 -0.000000 -0.000000 -0.000000 -0.000000 -0.000000 -0.000000 -0.000000 -0.000000 -0.000000 -0.000000 -0.000000 -0.000000 -0.000000 -0.000000 -0.000000 -0.000000 -0.000000 -0.000000 -0.000000 -0.000000 -0.000000 -0.000000 -0.000000 -0.000000 -0.000000 -0.000000 -0.000000 -0.000000 -0.000000 -0.000000 -0.000000 -0.000000 -0.000000 -0.000000 -0.000000 -0.000000 -0.000000 -0.000000 -0.000000 -0.000000 -0.000000 -0.000000 -0.000000 -0.000000 -0.000000 -0.000000 -0.000000 -0.000000 -0.000000 -0.000000 -0.000000 -0.000000 -0.000000 -0.000000 -0.000000 -0.000000 -0.000000 -0.000000 -0.000000 -0.000000 -0.000000 -0.000000 -0.000000 -0.000000 -0.000000 -0.000000 -0.000000 -0.000000 -0.000000 -0.000000 -0.000000 -0.000000 -0.000000 -0.000000 -0.000000 -0.000000 -0.000000 -0.000000 -0.000000 -0.000000 -0.000000 -0.000000 -0.000000 -0.000000 -0.000000 -0.000000 -0.000000 -0.000000 -0.000000 -0.000000 -0.000000 -0.000000 -0.000000 -0.000000 -0.000000 -0.000000 -0.000000 -0.000000 -0.000000 -0.000000 -0.000000 -0.000000 -0.000000 -0.000000 -0.000000 -0.000000 -0.000000 -0.000000 -0.000000 -0.000000 -0.000000 -0.000000 -0.000000 -0.000000 -0.000000 -0.000000 -0.000000 -0.000000 -0.000000 -0.000000 -0.000000 -0.000000 -0.000000 -0.000000 -0.000000 -0.000000 -0.000000 -0.000000 -0.000000 -0.000000 -0.000000 -0.000000 -0.000000 -0.000000 -0.000000 -0.000000 -0.000000 -0.000000 -0.000000 -0.000000 -0.000000 -0.000000 -0.000000 -0.000000 -0.000000 -0.000000 -0.000000 -0.000000 -0.000000 -0.000000 -0.000000 -0.000000 -0.000000 -0.000000 -0.000000 -0.000000 -0.000000 -0.000000 -0.000000 -0.000000 -0.000000 -0.000000 -0.000000 -0.000000 -0.000000 -0.000000 -0.000000 -0.000000 -0.000000 -0.000000 -0.000000 -0.000000 -0.000000 -0.000000 -0.000000 -0.000000 -0.000000 -0.000000 -0.000000 -0.000000 -0.000000 -0.000000 -0.000000 -0.000000 -0.000000 -0.000000 -0.000000 -0.000000 -0.000000 -0.000000 -0.000000 -0.000000 -0.000000 -0.000000 -0.000000 -0.000000 -0.000000 -0.000000 -0.000000 -0.000000 -0.000000 -0.000000 -0.000000 -0.000000 -0.000000 -0.000000 -0.000000 -0.000000 -0.000000 -0.000000 -0.000000 -0.000000 -0.000000 -0.000000 -0.000000 -0.000000 -0.000000 -0.000000 -0.000000 -0.000000 -0.000000 -0.000000 -0.000000 -0.000000 -0.000000 -0.000000 -0.000000 -0.000000 -0.000000 -0.000000 -0.000000 -0.000000 -0.000000 -0.000000 -0.000000 -0.000000 -0.000000 -0.000000 -0.000000 -0.000000 -0.000000 -0.000000 -0.000000 -0.000000 -0.000000 -0.000000 -0.000000 -0.000000 -0.000000 -0.000000 -0.000000 -0.000000 -0.000000 -0.000000 -0.000000 -0.000000 -0.000000 -0.000000 -0.000000 -0.000000 -0.000000 -0.000000 -0.000000 -0.000000 -0.000000 -0.000000 -0.000000 -0.000000 -0.000000 -0.000000 -0.000000 -0.000000 -0.000000 -0.000000 -0.000000 -0.000000 -0.000000 -0.000000 -0.000000 -0.000000 -0.000000 -0.000000 -0.000000 -0.000000 -0.000000 -0.000000 -0.000000 -0.000000 -0.000000 -0.000000 -0.000000 -0.000000 -0.000000 -0.000000 -0.000000 -0.000000 -0.000000 -0.000000 -0.000000 -0.000000 -0.000000 -0.000000 -0.000000 -0.000000 -0.000000 -0.000000 -0.000000 -0.000000 -0.000000 -0.000000 -0.000000 -0.000000 -0.000000 -0.000000 -0.000000 -0.000000 -0.000000 -0.000000 -0.000000 -0.000000 -0.000000 -0.000000 -0.000000 -0.000000 -0.000000 -0.000000 -0.000000 -0.000000 -0.000000 -0.000000 -0.000000 -0.000000 -0.000000 -0.000000 -0.000000 -0.000000 -0.000000 -0.000000 -0.000000 -0.000000 -0.000000 -0.000000 -0.000000 -0.000000 -0.000000 -0.000000 -0.000000 -0.000000 -0.000000 -0.000000 -0.000000 -0.000000 -0.000000 -0.000000 -0.000000 -0.000000 -0.000000 -0.000000 -0.000000 -0.000000 -0.000000 -0.000000 -0.000000 -0.000000 -0.000000 -0.000000 -0.000000 -0.000000 -0.000000 -0.000000 -0.000000 -0.000000 -0.000000 -0.000000 -0.000000 -0.000000 -0.000000 -0.000000 -0.000000 -0.000000 -0.000000 -0.000000 -0.000000 -0.000000 -0.000000 -0.000000 -0.000000 -0.000000 -0.000000 -0.000000 -0.000000 -0.000000 -0.000000 -0.000000 -0.000000 -0.000000 -0.000000 -0.000000 -0.000000 -0.000000 -0.000000 -0.000000 -0.000000 -0.000000 -0.000000 -0.000000 -0.000000 -0.000000 -0.000000 -0.000000 -0.000000 -0.000000 -0.000000 -0.000000 -0.000000 -0.000000 -0.000000 -0.000000 -0.000000 -0.000000 -0.000000 -0.000000 -0.000000 -0.000000 -0.000000 -0.000000 -0.000000 -0.000000 -0.000000 -0.000000 -0.000000 -0.000000 -0.000000 -0.000000 -0.000000 -0.000000 -0.000000 -0.000000 -0.000000 -0.000000 -0.000000 -0.000000 -0.000000 -0.000000 -0.000000 -0.000000 -0.000000 -0.000000 -0.000000 -0.000000 -0.000000 -0.000000 -0.000000 -0.000000 -0.000000 -0.000000 -0.000000 -0.000000 -0.000000 -0.000000 -0.000000 -0.000000 -0.000000 -0.000000 -0.000000 -0.000000 -0.000000 -0.000000 -0.000000 -0.000000 -0.000000 -0.000000 -0.000000 -0.000000 -0.000000 -0.000000 -0.000000 -0.000000 -0.000000 -0.000000 -0.000000 -0.000000 -0.000000 -0.000000 -0.000000 -0.000000 -0.000000 -0.000000 -0.000000 -0.000000 -0.000000 -0.000000 -0.000000 -0.000000 -0.000000 -0.000000 -0.000000 -0.000000 -0.000000 -0.000000 -0.000000 -0.000000 -0.000000 -0.000000 0.000000 -0.000000 -0.000000 -0.000000 -0.000000 -0.000000 -0.000000 -0.000000 -0.000000 -0.000000 -0.000000 -0.000000 -0.000000 -0.000000 -0.000000 -0.000000 -0.000000 -0.000000 -0.000000 -0.000000 -0.000000 -0.000000 -0.000000 -0.000000 -0.000000 -0.000000 -0.000000 -0.000000 -0.000000 -0.000000 -0.000000 -0.000000 -0.000000 -0.000000 -0.000000 -0.000000 -0.000000 -0.000000 -0.000000 -0.000000 -0.000000 -0.000000 -0.000000 -0.000000 -0.000000 -0.000000 -0.000000 -0.000000 -0.000000 -0.000000 -0.000000 -0.000000 -0.000000 -0.000000 -0.000000 -0.000000 -0.000000 -0.000000 -0.000000 -0.000000 -0.000000 -0.000000 -0.000000 -0.000000 -0.000000 -0.000000 -0.000000 -0.000000 -0.000000 -0.000000 -0.000000 -0.000000 -0.000000 -0.000000 -0.000000 -0.000000 -0.000000 -0.000000 -0.000000 -0.000000 -0.000000 -0.000000 -0.000000 -0.000000 -0.000000 -0.000000 -0.000000 -0.000000 -0.000000 -0.000000 -0.000000 -0.000000 -0.000000 -0.000000 -0.000000 -0.000000 -0.000000 -0.000000 -0.000000 -0.000000 -0.000000 -0.000000 -0.000000 -0.000000 -0.000000 -0.000000 -0.000000 -0.000000 -0.000000 -0.000000 -0.000000 -0.000000 -0.000000 -0.000000 -0.000000 -0.000000 -0.000000 -0.000000 -0.000000 -0.000000 -0.000000 -0.000000 -0.000000 -0.000000 -0.000000 -0.000000 -0.000000 -0.000000 -0.000000 -0.000000 -0.000000 -0.000000 -0.000000 -0.000000 -0.000000 -0.000000 -0.000000 -0.000000 -0.000000 -0.000000 -0.000000 -0.000000 -0.000000 -0.000000 -0.000000 -0.000000 -0.000000 -0.000000 -0.000000 -0.000000 -0.000000 -0.000000 -0.000000 -0.000000 -0.000000 -0.000000 -0.000000 -0.000000 -0.000000 -0.000000 -0.000000 -0.000000 -0.000000 -0.000000 -0.000000 -0.000000 -0.000000 -0.000000 -0.000000 -0.000000 -0.000000 -0.000000 -0.000000 -0.000000 -0.000000 -0.000000 -0.000000 -0.000000 -0.000000 -0.000000 -0.000000 -0.000000 -0.000000 -0.000000 -0.000000 -0.000000 -0.000000 -0.000000 -0.000000 -0.000000 -0.000000 -0.000000 -0.000000 -0.000000 -0.000000 -0.000000 -0.000000 -0.000000 -0.000000 -0.000000 -0.000000 -0.000000 -0.000000 -0.000000 -0.000000 -0.000000 -0.000000 -0.000000 -0.000000 -0.000000 -0.000000 -0.000000 -0.000000 -0.000000 -0.000000 -0.000000 -0.000000 -0.000000 -0.000000 -0.000000 -0.000000 0.000000 -0.000000 -0.000000 -0.000000 -0.000000 -0.000000 -0.000000 0.000000 -0.000000 -0.000000 -0.000000 -0.000000 0.000000 -0.000000 -0.000000 0.000000 0.000000 0.000000 0.000000 -0.000000 -0.000000 -0.000000 -0.000000 -0.000000 -0.000000 -0.000000 -0.000000 -0.000000 -0.000000 -0.000000 -0.000000 -0.000000 -0.000001 -0.000001 -0.000002 -0.000003 -0.000005 -0.000009 -0.000014 -0.000023 -0.000036 -0.000056 -0.000088 -0.000135 -0.000207 -0.000313 -0.000470 -0.000698 -0.001027 -0.001495 -0.002154 -0.003068 -0.004319 -0.006007 -0.008244 -0.011152 -0.014851 -0.019430 -0.024905 -0.031157 -0.037821 -0.044137 -0.048713 -0.049211 -0.041884 -0.020959 0.022203 0.100227 0.231174 0.440417 0.763010 1.246634 1.955212 2.973242 4.410919 6.410057 9.150807 12.859131 17.814957 24.360921 32.911577 43.962900 58.101733 76.014429 98.493126 126.436696 160.841502 202.775023 253.324637 313.516995 384.215173 466.027876 559.317213 664.482585 782.847261 918.690260 1083.121533 1299.851531 1609.592501 2065.842932 2714.133289 2142.332215 820.073349 2487.781693 2973.922566 2986.623537 5101.371356 5328.208984 5657.873345 8596.371058 7487.027565 8819.963238 10361.739969 13111.691286 12256.299017 12563.968780 13108.942716 13306.616138 15874.494885 14969.394391 14834.540543 15576.008923 13958.912015 13781.303174 13781.303174 13781.303174 0.000000 0.000000 0.000000 0.000000 -0.000000 -0.000000 -0.000000 -0.000000 -0.000000 -0.000000 -0.000000 -0.000000 -0.000000 -0.000000 -0.000000 -0.000000 -0.000000 -0.000001 -0.000001 -0.000002 -0.000003 -0.000006 -0.000009 -0.000015 -0.000023 -0.000037 -0.000058 -0.000090 -0.000139 -0.000212 -0.000320 -0.000480 -0.000713 -0.001047 -0.001523 -0.002191 -0.003117 -0.004383 -0.006088 -0.008343 -0.011270 -0.014983 -0.019565 -0.025025 -0.031226 -0.037783 -0.043901 -0.048142 -0.048101 -0.039941 -0.017767 0.027225 0.107872 0.242509 0.456857 0.786403 1.279359 2.000286 3.034438 4.492880 6.518419 9.292306 13.041705 18.047830 24.654668 33.278168 44.415699 58.655395 76.684606 99.295800 127.386924 161.951413 204.051184 254.765684 315.113755 385.957096 467.919790 561.403316 666.844728 785.454287 920.749212 1081.124098 1282.870816 1549.741298 1895.321573 2227.569582 2321.430243 2183.883253 2861.861227 3565.104951 4183.263354 5307.208006 6067.660111 6657.713028 8067.649356 8460.303340 9653.994196 11111.369903 12076.048783 10846.716008 10883.756953 11272.543552 12285.256116 13697.355457 14440.011431 13527.331058 12935.785123 13061.030586 13110.265261 13110.265261 13110.265261 0.000000 0.000000 0.000000 0.000000 -0.000000 -0.000000 -0.000000 -0.000000 -0.000000 -0.000000 -0.000000 -0.000000 -0.000000 -0.000000 -0.000000 -0.000000 -0.000000 -0.000001 -0.000001 -0.000002 -0.000004 -0.000006 -0.000009 -0.000015 -0.000024 -0.000038 -0.000060 -0.000093 -0.000143 -0.000218 -0.000329 -0.000492 -0.000730 -0.001071 -0.001555 -0.002234 -0.003174 -0.004457 -0.006180 -0.008456 -0.011403 -0.015131 -0.019717 -0.025157 -0.031298 -0.037727 -0.043611 -0.047459 -0.046788 -0.037656 -0.014027 0.033092 0.116782 0.255695 0.475952 0.813538 1.317274 2.052453 3.105193 4.587560 6.643491 9.455501 13.252124 18.316043 24.992793 33.699912 44.936345 59.291677 77.454329 100.217017 128.476420 163.222279 205.509635 256.408097 316.926362 387.922617 470.035601 563.709067 669.428210 788.317716 923.208276 1080.029841 1268.681575 1501.088413 1782.422786 2097.519950 2420.475599 2788.101591 3287.381431 3891.765198 4567.183842 5313.659674 6072.366196 6861.469158 7716.465758 8577.242484 9491.651237 10420.321598 11225.783275 11766.934106 12255.632478 12573.970916 12946.690884 13241.387060 13415.356416 13161.567882 12893.262408 12727.458592 12687.163814 12687.163814 12687.163814 -0.000000 -0.000000 -0.000000 -0.000000 -0.000000 -0.000000 -0.000000 -0.000000 -0.000000 -0.000000 -0.000000 -0.000000 -0.000000 -0.000000 -0.000000 -0.000000 -0.000000 -0.000001 -0.000001 -0.000002 -0.000004 -0.000006 -0.000009 -0.000015 -0.000024 -0.000038 -0.000060 -0.000093 -0.000143 -0.000219 -0.000330 -0.000494 -0.000733 -0.001075 -0.001561 -0.002242 -0.003184 -0.004470 -0.006197 -0.008477 -0.011427 -0.015158 -0.019744 -0.025180 -0.031310 -0.037716 -0.043557 -0.047334 -0.046548 -0.037240 -0.013348 0.034156 0.118395 0.258081 0.479404 0.818439 1.324118 2.061864 3.117949 4.604621 6.666018 9.484880 13.289989 18.364291 25.053596 33.775727 45.029912 59.405989 77.592565 100.382389 128.671889 163.450109 205.770810 256.701765 317.249747 388.272142 470.410085 564.114755 669.880754 788.822367 923.666625 1079.965525 1266.667043 1494.177234 1768.099285 2082.871888 2431.474999 2834.823497 3332.783649 3923.704358 4587.326990 5308.493442 6061.363185 6848.444067 7681.936599 8543.343210 9434.207287 10324.149930 11137.881680 11809.215208 12342.385472 12739.889433 13042.106490 13249.922567 13315.611103 13185.212799 12907.978650 12673.632169 12625.155329 12625.155329 12625.155329 -0.000000 -0.000000 -0.000000 -0.000000 -0.000000 -0.000000 -0.000000 -0.000000 -0.000000 -0.000000 -0.000000 -0.000000 -0.000000 -0.000000 -0.000000 -0.000000 -0.000000 -0.000001 -0.000001 -0.000002 -0.000004 -0.000006 -0.000009 -0.000015 -0.000024 -0.000038 -0.000060 -0.000093 -0.000143 -0.000219 -0.000330 -0.000494 -0.000733 -0.001075 -0.001561 -0.002242 -0.003184 -0.004470 -0.006197 -0.008477 -0.011427 -0.015158 -0.019744 -0.025180 -0.031310 -0.037716 -0.043557 -0.047334 -0.046548 -0.037240 -0.013348 0.034156 0.118395 0.258081 0.479404 0.818439 1.324118 2.061864 3.117949 4.604621 6.666018 9.484880 13.289989 18.364291 25.053596 33.775727 45.029912 59.405989 77.592565 100.382389 128.671889 163.450109 205.770810 256.701765 317.249747 388.272142 470.410085 564.114755 669.880754 788.822367 923.666625 1079.965525 1266.667043 1494.177234 1768.099285 2082.871888 2431.474999 2834.823497 3332.783649 3923.704358 4587.326990 5308.493442 6061.363185 6848.444067 7681.936599 8543.343210 9434.207287 10324.149930 11137.881680 11809.215208 12342.385472 12739.889433 13042.106490 13249.922567 13315.611103 13185.212799 12907.978650 12673.632169 12625.155329 12625.155329 12625.155329 -0.000000 -0.000000 -0.000000 -0.000000 -0.000000 -0.000000 -0.000000 -0.000000 -0.000000 -0.000000 -0.000000 -0.000000 -0.000000 -0.000000 -0.000000 -0.000000 -0.000000 -0.000001 -0.000001 -0.000002 -0.000004 -0.000006 -0.000009 -0.000015 -0.000024 -0.000038 -0.000060 -0.000093 -0.000143 -0.000219 -0.000330 -0.000494 -0.000733 -0.001075 -0.001561 -0.002242 -0.003184 -0.004470 -0.006197 -0.008477 -0.011427 -0.015158 -0.019744 -0.025180 -0.031310 -0.037716 -0.043557 -0.047334 -0.046548 -0.037240 -0.013348 0.034156 0.118395 0.258081 0.479404 0.818439 1.324118 2.061864 3.117949 4.604621 6.666018 9.484880 13.289989 18.364291 25.053596 33.775727 45.029912 59.405989 77.592565 100.382389 128.671889 163.450109 205.770810 256.701765 317.249747 388.272142 470.410085 564.114755 669.880754 788.822367 923.666625 1079.965525 1266.667043 1494.177234 1768.099285 2082.871888 2431.474999 2834.823497 3332.783649 3923.704358 4587.326990 5308.493442 6061.363185 6848.444067 7681.936599 8543.343210 9434.207287 10324.149930 11137.881680 11809.215208 12342.385472 12739.889433 13042.106490 13249.922567 13315.611103 13185.212799 12907.978650 12673.632169 12625.155329 12625.155329 12625.155329 -1340.662154 -1555.527211 -1959.200074 -2394.910066 -1109.114157 131.295332 -749.702997 -1346.624057 428.692446 1316.203576 138.907334 -1056.714125 -1612.945428 585.427863 1311.729570 -599.117478 -2000.525711 254.646891 1735.699021 -827.844764 -1498.119660 1691.669899 1915.548577 331.029654 -1166.907417 -1863.272832 1159.561757 2046.893928 213.072078 -1917.043177 -2222.176203 2125.614762 1182.278080 -3687.140849 -1169.521759 3505.173701 2754.317091 2268.077048 1820.729547 4077.376708 6907.108843 8152.168951 6363.526206 7743.608763 8821.266098 9565.555608 9552.155733 7335.341310 10812.822798 13120.410565 12891.056649 13065.362207 14035.592013 14151.979085 14151.979085 14151.979085 16.873168 130.133287 -368.505928 6293.517378 11389.871300 8852.460420 10251.257725 10885.241504 12714.648918 7519.530317 9641.474800 10805.095689 8168.904601 12016.182448 11949.393583 10512.776692 5917.069736 11860.279728 10606.521127 6224.976155 12276.122302 11291.634316 9995.629390 7592.772596 7932.855379 8455.123280 8565.059705 9260.237782 11563.021329 10474.057583 7871.992405 7360.932483 8835.119214 7498.568791 7451.832325 9995.304841 8144.443980 7122.604514 8820.074886 13034.104579 9199.331615 9762.774805 10409.147518 8411.046849 11923.715557 11527.744131 10945.443485 10086.939882 9318.374755 9275.097054 11338.080924 10450.480930 13636.377496 14067.796582 14067.796582 14067.796582 141.937445 91.628505 2235.922928 -438.304450 4110.691245 3657.418650 5948.211164 11297.761678 9987.311225 9278.836176 9038.444270 6214.130863 8479.793857 9336.422113 6755.120173 9314.299736 5539.553729 8148.770642 11399.779820 8463.158045 6577.226364 12103.849795 9468.145517 10206.877980 7676.492545 12071.154465 8462.194670 8853.173123 10197.304139 10800.740881 9658.519740 10865.285345 7630.513183 11609.075241 10884.728828 9207.209750 9320.486022 9094.197129 8038.276086 9171.050151 9284.536683 10417.696649 9598.687095 7853.869180 11127.654742 10704.882271 9527.252622 9292.788521 11205.126001 13396.665909 8941.120934 11510.264605 13603.980764 14027.173633 14027.173633 14027.173633 -277.954087 -206.700415 2532.136405 3305.238586 6651.733875 510.916187 2942.737507 1997.726302 6960.596245 5478.158408 4359.940235 9428.572126 6734.192107 4967.989012 7746.753495 3964.133421 7831.341069 7446.075988 4921.345435 5261.076093 9630.562938 4806.962256 9575.068277 8364.202220 8658.650732 7878.212887 6777.279438 7924.571403 10920.071555 9891.563456 8676.512387 11582.842222 10270.472314 8325.206203 13188.168695 10591.799134 11089.401405 8664.958897 10235.476867 12258.234022 10147.927709 7971.565906 10943.029623 11272.625226 9458.092520 11712.754681 12579.210930 11323.452222 10038.420182 11577.128769 8681.954550 16006.759880 14319.185657 14124.457832 14124.457832 14124.457832 -32.915990 1409.897981 4993.212501 487.722881 86.487139 3734.663288 2562.018733 1104.537184 3285.917120 4789.253793 2766.864895 3366.191909 4447.273671 8573.499640 4939.369322 5571.028581 2929.483744 3328.383354 4193.022973 4805.848450 3632.205164 3551.676077 5567.888593 4856.590904 6663.037181 7120.525628 7111.101221 10209.719352 8995.178492 8643.841404 10341.65