<VTKFile type="PolyData">
<PolyData>
<Piece NumberOfPoints="8632" NumberOfVerts="8632" NumberOfLines="0" NumberOfStrips="0" NumberOfPolys="0">
<PointData>
<DataArray type="Float64" Name="Pressure" format="ascii">
 -8.845685 -8.845685 -8.845685 -8.931738 -9.896008 -12.380130 -15.185096 -18.364478 -21.892862 -25.764080 -29.997471 -34.626894 -39.693693 -45.243445 -51.324618 -57.988018 -65.286533 -73.274985 -82.009995 -91.549842 -101.954285 -113.284365 -125.602156 -138.970485 -153.452605 -169.111833 -186.011140 -204.212703 -223.777424 -244.764405 -267.230403 -291.229251 -316.811265 -344.022637 -372.904823 -403.493920 -435.820044 -469.906690 -505.770061 -543.418343 -582.850876 -624.057167 -667.015691 -711.692387 -758.038788 -805.989730 -855.460582 -906.343964 -958.505777 -1011.779994 -1065.960343 -1120.783602 -1175.890831 -1230.738310 -1284.419588 -1335.628924 -1383.201185 -1426.312226 -1463.390068 -1490.691179 -1500.254912 -1477.204161 -1399.053888 -1247.423807 -1054.623612 -895.749339 -766.463208 -606.861000 -422.056079 -293.339277 -238.093582 -200.573989 -117.916584 29.340323 175.914570 261.553852 304.882358 354.296086 459.358148 670.385300 1009.129946 1428.215495 1864.753743 2302.168392 2747.996151 3204.937902 3670.263934 4148.542292 4647.547589 5164.385264 5692.627144 6229.036357 6775.580644 7333.716358 7901.874280 8483.505195 9072.833889 9650.166442 10209.547162 10745.902949 11238.674618 11684.547637 12092.991459 12463.295426 12781.097711 13030.022638 13218.071280 13332.257656 13353.980284 13353.980284 13353.980284 -8.845685 -8.845685 -8.845685 -8.931738 -9.896008 -12.380130 -15.185096 -18.364478 -21.892862 -25.764080 -29.997471 -34.626894 -39.693693 -45.243445 -51.324618 -57.988018 -65.286533 -73.274985 -82.009995 -91.549842 -101.954285 -113.284365 -125.602156 -138.970485 -153.452605 -169.111833 -186.011140 -204.212703 -223.777424 -244.764405 -267.230403 -291.229251 -316.811265 -344.022637 -372.904823 -403.493920 -435.820044 -469.906690 -505.770061 -543.418343 -582.850876 -624.057167 -667.015691 -711.692387 -758.038788 -805.989730 -855.460582 -906.343964 -958.505777 -1011.779994 -1065.960343 -1120.783602 -1175.890831 -1230.738310 -1284.419588 -1335.628924 -1383.201185 -1426.312226 -1463.390068 -1490.691179 -1500.254912 -1477.204161 -1399.053888 -1247.423807 -1054.623612 -895.749339 -766.463208 -606.861000 -422.056079 -293.339277 -238.093582 -200.573989 -117.916584 29.340323 175.914570 261.553852 304.882358 354.296086 459.358148 670.385300 1009.129946 1428.215495 1864.753743 2302.168392 2747.996151 3204.937902 3670.263934 4148.542292 4647.547589 5164.385264 5692.627144 6229.036357 6775.580644 7333.716358 7901.874280 8483.505195 9072.833889 9650.166442 10209.547162 10745.902949 11238.674618 11684.547637 12092.991459 12463.295426 12781.097711 13030.022638 13218.071280 13332.257656 13353.980284 13353.980284 13353.980284 -8.845685 -8.845685 -8.845685 -8.931738 -9.896008 -12.380130 -15.185096 -18.364478 -21.892862 -25.764080 -29.997471 -34.626894 -39.693693 -45.243445 -51.324618 -57.988018 -65.286533 -73.274985 -82.009995 -91.549842 -101.954285 -113.284365 -125.602156 -138.970485 -153.452605 -169.111833 -186.011140 -204.212703 -223.777424 -244.764405 -267.230403 -291.229251 -316.811265 -344.022637 -372.904823 -403.493920 -435.820044 -469.906690 -505.770061 -543.418343 -582.850876 -624.057167 -667.015691 -711.692387 -758.038788 -805.989730 -855.460582 -906.343964 -958.505777 -1011.779994 -1065.960343 -1120.783602 -1175.890831 -1230.738310 -1284.419588 -1335.628924 -1383.201185 -1426.312226 -1463.390068 -1490.691179 -1500.254912 -1477.204161 -1399.053888 -1247.423807 -1054.623612 -895.749339 -766.463208 -606.861000 -422.056079 -293.339277 -238.093582 -200.573989 -117.916584 29.340323 175.914570 261.553852 304.882358 354.296086 459.358148 670.385300 1009.129946 1428.215495 1864.753743 2302.168392 2747.996151 3204.937902 3670.263934 4148.542292 4647.547589 5164.385264 5692.627144 6229.036357 6775.580644 7333.716358 7901.874280 8483.505195 9072.833889 9650.166442 10209.547162 10745.902949 11238.674618 11684.547637 12092.991459 12463.295426 12781.097711 13030.022638 13218.071280 13332.257656 13353.980284 13353.980284 13353.980284 -8.809729 -8.809729 -8.809729 -8.894204 -9.851785 -12.319858 -15.132330 -18.332500 -21.875990 -25.754031 -29.989914 -34.619940 -39.686564 -45.235814 -51.316339 -57.979017 -65.276766 -73.264418 -81.998603 -91.537600 -101.941175 -113.270370 -125.587265 -138.954690 -153.435904 -169.094230 -185.992643 -204.193330 -223.757198 -244.743357 -267.208573 -291.206686 -316.788021 -343.998779 -372.880424 -403.469063 -435.794820 -469.881199 -505.744415 -543.392665 -582.825301 -624.031853 -666.990818 -711.668172 -758.015504 -805.967751 -855.440479 -906.326740 -958.493455 -1011.777079 -1065.977464 -1120.846388 -1176.059801 -1231.143907 -1285.215469 -1336.818246 -1384.665839 -1428.390467 -1466.918432 -1497.169230 -1512.275926 -1499.555674 -1433.833850 -1275.463349 -1046.583408 -893.416854 -781.787174 -628.967474 -402.262784 -270.543046 -232.327425 -216.022587 -144.398283 29.447415 200.570554 278.614886 306.029138 338.627968 425.761922 628.509422 985.693319 1428.907676 1872.659034 2309.377561 2755.634738 3213.236750 3673.659431 4144.940214 4642.514618 5157.040419 5681.131656 6210.499616 6752.822186 7313.034416 7882.058695 8470.142110 9073.756635 9654.760657 10210.522895 10748.843503 11234.938912 11676.160690 12088.575515 12466.745846 12792.501202 13044.054367 13233.249444 13351.314644 13375.077334 13375.077334 13375.077334 -8.418283 -8.418283 -8.418283 -8.485246 -9.312558 -11.521279 -14.454015 -17.993040 -21.706205 -25.654546 -29.914919 -34.550675 -39.615403 -45.159580 -51.233610 -57.889066 -65.179147 -73.158804 -81.884726 -91.415233 -101.810124 -113.130476 -125.438410 -138.796800 -153.268957 -168.918259 -185.807744 -203.999665 -223.555002 -244.532944 -266.990334 -290.981097 -316.555643 -343.760260 -372.636498 -403.220551 -435.542634 -469.626346 -505.488003 -543.135920 -582.569595 -623.778739 -666.742100 -711.426008 -757.782616 -805.747835 -855.239164 -906.153874 -958.368787 -1011.744478 -1066.140608 -1121.457501 -1177.734537 -1235.300814 -1294.935315 -1351.695948 -1401.147088 -1450.958794 -1505.091531 -1567.448960 -1644.457349 -1746.118131 -1891.627254 -1596.330728 -806.834417 -769.411611 -1044.280208 -956.808862 -86.897020 101.295876 -165.774026 -418.806435 -570.642078 49.505782 615.837531 489.887940 321.284774 158.472934 19.760753 13.097842 673.681060 1511.900480 1981.960066 2393.864653 2852.736084 3328.322422 3705.267394 4062.978767 4544.472864 5033.093470 5497.988877 5925.001699 6414.221544 7023.257794 7592.651439 8254.562323 9096.727996 9700.298095 10173.904523 10746.941789 11146.976454 11525.382042 12005.831658 12457.116730 12848.209554 13120.872057 13355.627676 13560.098441 13603.988717 13603.988717 13603.988717 -7.855728 -7.855728 -7.855728 -7.908269 -8.512325 -10.107554 -12.971027 -17.399046 -21.458143 -25.522136 -29.822436 -34.469166 -39.533458 -45.072538 -51.139447 -57.786796 -65.068198 -73.038781 -81.755314 -91.276167 -101.661182 -112.971477 -125.269217 -138.617329 -153.079181 -168.718214 -185.597539 -203.779485 -223.325113 -244.293700 -266.742182 -290.724576 -316.291391 -343.489012 -372.359088 -402.937915 -435.255807 -469.336470 -505.196337 -542.843856 -582.278690 -623.490761 -666.459112 -711.150514 -757.517840 -805.498334 -855.012234 -905.962986 -958.242114 -1011.746328 -1066.425623 -1122.409413 -1180.332399 -1242.211610 -1313.952152 -1375.131042 -1421.611770 -1477.323626 -1549.598891 -1649.739979 -1801.024799 -2047.780542 -2531.302496 -2071.265367 -463.840720 -531.392656 -1435.725160 -1386.431382 395.327120 662.718370 -78.930831 -719.371427 -1177.823828 139.564941 1282.779603 803.332331 344.400138 -62.418448 -603.717543 -1103.370653 304.445756 1885.334414 2176.331204 2502.141839 3019.296574 3664.569817 3756.659301 3664.715954 4477.588817 4766.318906 5386.699266 5494.658403 5773.048123 6936.988323 7195.705367 7757.189950 9534.937333 10194.598447 9902.778915 11139.251584 10943.071069 11334.136897 12115.797361 12326.508562 12445.272528 12811.409366 13366.010690 13838.753498 13925.020446 13925.020446 13925.020446 -7.774934 -7.774934 -7.774934 -7.825482 -8.401317 -9.882805 -7.205429 -7.205429 -7.205429 -7.238609 -7.615298 -8.437151 -6.305973 -6.305973 -6.305973 -6.320705 -6.478100 -6.745272 -5.475352 -5.475352 -5.475352 -5.480955 -5.536389 -5.628079 -4.732277 -4.732277 -4.732277 -4.733794 -4.748284 -4.775206 -4.076905 -4.076905 -4.076905 -4.076841 -4.075895 -4.078840 -3.503368 -3.503368 -3.503368 -3.502756 -3.496507 -3.490985 -3.003781 -3.003781 -3.003781 -3.003023 -2.995397 -2.987360 -2.570023 -2.570023 -2.570023 -2.569271 -2.561737 -2.553431 -2.194405 -2.194405 -2.194405 -2.193712 -2.186779 -2.179010 -1.869898 -1.869898 -1.869898 -1.869278 -1.863083 -1.856095 -1.590167 -1.590167 -1.590167 -1.589621 -1.584163 -1.577988 -1.349559 -1.349559 -1.349559 -1.349081 -1.344306 -1.338898 -1.143044 -1.143044 -1.143044 -1.142628 -1.138470 -1.133759 -0.966171 -0.966171 -0.966171 -0.965810 -0.962202 -0.958112 -0.815009 -0.815009 -0.815009 -0.814697 -0.811574 -0.808034 -0.686098 -0.686098 -0.686098 -0.685828 -0.683132 -0.680076 -0.576397 -0.576397 -0.576397 -0.576164 -0.573842 -0.571210 -0.483244 -0.483244 -0.483244 -0.483044 -0.481049 -0.478788 -0.404314 -0.404314 -0.404314 -0.404143 -0.402432 -0.400494 -0.337579 -0.337579 -0.337579 -0.337433 -0.335970 -0.334312 -0.281277 -0.281277 -0.281277 -0.281152 -0.279904 -0.278489 -0.233880 -0.233880 -0.233880 -0.233773 -0.232710 -0.231506 -0.194065 -0.194065 -0.194065 -0.193975 -0.193072 -0.192049 -0.160693 -0.160693 -0.160693 -0.160616 -0.159851 -0.158985 -0.132782 -0.132782 -0.132782 -0.132717 -0.132070 -0.131338 -0.109489 -0.109489 -0.109489 -0.109435 -0.108889 -0.108271 -0.090093 -0.090093 -0.090093 -0.090047 -0.089588 -0.089068 -0.073977 -0.073977 -0.073977 -0.073938 -0.073553 -0.073116 -0.060616 -0.060616 -0.060616 -0.060584 -0.060261 -0.059895 -0.049563 -0.049563 -0.049563 -0.049536 -0.049266 -0.048961 -0.040440 -0.040440 -0.040440 -0.040417 -0.040192 -0.039937 -0.032926 -0.032926 -0.032926 -0.032907 -0.032720 -0.032508 -0.026751 -0.026751 -0.026751 -0.026735 -0.026580 -0.026404 -0.021688 -0.021688 -0.021688 -0.021675 -0.021546 -0.021401 -0.017545 -0.017545 -0.017545 -0.017535 -0.017429 -0.017308 -0.014164 -0.014164 -0.014164 -0.014155 -0.014068 -0.013969 -0.011410 -0.011410 -0.011410 -0.011402 -0.011330 -0.011249 -0.009171 -0.009171 -0.009171 -0.009165 -0.009106 -0.009039 -0.007356 -0.007356 -0.007356 -0.007351 -0.007303 -0.007248 -0.005887 -0.005887 -0.005887 -0.005883 -0.005844 -0.005799 -0.004702 -0.004702 -0.004702 -0.004699 -0.004667 -0.004630 -0.003747 -0.003747 -0.003747 -0.003744 -0.003718 -0.003689 -0.002980 -0.002980 -0.002980 -0.002977 -0.002956 -0.002932 -0.002364 -0.002364 -0.002364 -0.002362 -0.002345 -0.002326 -0.001872 -0.001872 -0.001872 -0.001870 -0.001857 -0.001841 -0.001479 -0.001479 -0.001479 -0.001478 -0.001466 -0.001454 -0.001166 -0.001166 -0.001166 -0.001165 -0.001156 -0.001146 -0.000917 -0.000917 -0.000917 -0.000916 -0.000909 -0.000901 -0.000720 -0.000720 -0.000720 -0.000719 -0.000713 -0.000707 -0.000564 -0.000564 -0.000564 -0.000563 -0.000559 -0.000553 -0.000440 -0.000440 -0.000440 -0.000440 -0.000436 -0.000432 -0.000343 -0.000343 -0.000343 -0.000343 -0.000340 -0.000337 -0.000267 -0.000267 -0.000267 -0.000267 -0.000265 -0.000262 -0.000207 -0.000207 -0.000207 -0.000207 -0.000205 -0.000203 -0.000161 -0.000161 -0.000161 -0.000161 -0.000159 -0.000157 -0.000124 -0.000124 -0.000124 -0.000124 -0.000123 -0.000122 -0.000096 -0.000096 -0.000096 -0.000096 -0.000095 -0.000094 -0.000074 -0.000074 -0.000074 -0.000074 -0.000073 -0.000072 -0.000057 -0.000057 -0.000057 -0.000057 -0.000056 -0.000055 -0.000043 -0.000043 -0.000043 -0.000043 -0.000043 -0.000042 -0.000033 -0.000033 -0.000033 -0.000033 -0.000033 -0.000032 -0.000025 -0.000025 -0.000025 -0.000025 -0.000025 -0.000025 -0.000019 -0.000019 -0.000019 -0.000019 -0.000019 -0.000019 -0.000015 -0.000015 -0.000015 -0.000015 -0.000014 -0.000014 -0.000011 -0.000011 -0.000011 -0.000011 -0.000011 -0.000011 -0.000008 -0.000008 -0.000008 -0.000008 -0.000008 -0.000008 -0.000006 -0.000006 -0.000006 -0.000006 -0.000006 -0.000006 -0.000005 -0.000005 -0.000005 -0.000005 -0.000005 -0.000005 -0.000004 -0.000004 -0.000004 -0.000004 -0.000004 -0.000003 -0.000003 -0.000003 -0.000003 -0.000003 -0.000003 -0.000003 -0.000002 -0.000002 -0.000002 -0.000002 -0.000002 -0.000002 -0.000001 -0.000001 -0.000001 -0.000001 -0.000001 -0.000001 -0.000001 -0.000001 -0.000001 -0.000001 -0.000001 -0.000001 -0.000001 -0.000001 -0.000001 -0.000001 -0.000001 -0.000001 -0.000001 -0.000001 -0.000001 -0.000001 -0.000001 -0.000001 -0.000000 -0.000000 -0.000000 -0.000000 -0.000000 -0.000000 -0.000000 -0.000000 -0.000000 -0.000000 -0.000000 -0.000000 -0.000000 -0.000000 -0.000000 -0.000000 -0.000000 -0.000000 -0.000000 -0.000000 -0.000000 -0.000000 -0.000000 -0.000000 -0.000000 -0.000000 -0.000000 -0.000000 -0.000000 -0.000000 -0.000000 -0.000000 -0.000000 -0.000000 -0.000000 -0.000000 -0.000000 -0.000000 -0.000000 -0.000000 -0.000000 -0.000000 -0.000000 -0.000000 -0.000000 -0.000000 -0.000000 -0.000000 -0.000000 -0.000000 -0.000000 -0.000000 -0.000000 -0.000000 -0.000000 -0.000000 -0.000000 -0.000000 -0.000000 -0.000000 -0.000000 -0.000000 -0.000000 -0.000000 -0.000000 -0.000000 -0.000000 -0.000000 -0.000000 -0.000000 -0.000000 -0.000000 -0.000000 -0.000000 -0.000000 -0.000000 -0.000000 -0.000000 -0.000000 -0.000000 -0.000000 -0.000000 -0.000000 -0.000000 -0.000000 -0.000000 -0.000000 -0.000000 -0.000000 -0.000000 -0.000000 -0.000000 -0.000000 -0.000000 -0.000000 -0.000000 -0.000000 -0.000000 -0.000000 -0.000000 -0.000000 -0.000000 -0.000000 -0.000000 -0.000000 -0.000000 -0.000000 -0.000000 -0.000000 -0.000000 -0.000000 -0.000000 -0.000000 -0.000000 -0.000000 -0.000000 -0.000000 -0.000000 -0.000000 -0.000000 -0.000000 -0.000000 -0.000000 -0.000000 -0.000000 -0.000000 -0.000000 -0.000000 -0.000000 -0.000000 -0.000000 -0.000000 -0.000000 -0.000000 -0.000000 -0.000000 -0.000000 -0.000000 -0.000000 -0.000000 -0.000000 -0.000000 -0.000000 -0.000000 -0.000000 -0.000000 -0.000000 -0.000000 -0.000000 -0.000000 -0.000000 -0.000000 -0.000000 -0.000000 -0.000000 -0.000000 -0.000000 -0.000000 -0.000000 -0.000000 -0.000000 -0.000000 -0.000000 -0.000000 -0.000000 -0.000000 -0.000000 -0.000000 -0.000000 -0.000000 -0.000000 -0.000000 -0.000000 -0.000000 -0.000000 -0.000000 -0.000000 -0.000000 -0.000000 -0.000000 -0.000000 -0.000000 -0.000000 -0.000000 -0.000000 -0.000000 -0.000000 -0.000000 -0.000000 -0.000000 -0.000000 -0.000000 -0.000000 -0.000000 -0.000000 -0.000000 -0.000000 -0.000000 -0.000000 -0.000000 -0.000000 -0.000000 -0.000000 -0.000000 -0.000000 -0.000000 -0.000000 -0.000000 -0.000000 -0.000000 -0.000000 -0.000000 -0.000000 -0.000000 -0.000000 -0.000000 -0.000000 -0.000000 -0.000000 -0.000000 -0.000000 -0.000000 -0.000000 -0.000000 -0.000000 -0.000000 -0.000000 -0.000000 -0.000000 -0.000000 -0.000000 -0.000000 -0.000000 -0.000000 -0.000000 -0.000000 -0.000000 -0.000000 -0.000000 -0.000000 -0.000000 -0.000000 -0.000000 -0.000000 -0.000000 -0.000000 -0.000000 -0.000000 -0.000000 -0.000000 -0.000000 -0.000000 -0.000000 -0.000000 -0.000000 -0.000000 -0.000000 -0.000000 -0.000000 -0.000000 -0.000000 -0.000000 -0.000000 -0.000000 -0.000000 -0.000000 -0.000000 -0.000000 -0.000000 -0.000000 -0.000000 -0.000000 -0.000000 -0.000000 -0.000000 -0.000000 -0.000000 -0.000000 -0.000000 -0.000000 -0.000000 -0.000000 -0.000000 -0.000000 -0.000000 -0.000000 -0.000000 -0.000000 -0.000000 -0.000000 -0.000000 -0.000000 -0.000000 -0.000000 -0.000000 -0.000000 -0.000000 -0.000000 -0.000000 -0.000000 -0.000000 -0.000000 -0.000000 -0.000000 -0.000000 -0.000000 -0.000000 -0.000000 -0.000000 -0.000000 -0.000000 -0.000000 -0.000000 -0.000000 -0.000000 -0.000000 -0.000000 -0.000000 -0.000000 -0.000000 -0.000000 -0.000000 -0.000000 -0.000000 -0.000000 -0.000000 -0.000000 -0.000000 -0.000000 -0.000000 -0.000000 -0.000000 -0.000000 -0.000000 -0.000000 -0.000000 -0.000000 -0.000000 -0.000000 -0.000000 -0.000000 -0.000000 -0.000000 -0.000000 -0.000000 -0.000000 -0.000000 -0.000000 -0.000000 -0.000000 -0.000000 -0.000000 -0.000000 -0.000000 -0.000000 -0.000000 -0.000000 -0.000000 -0.000000 -0.000000 -0.000000 -0.000000 -0.000000 -0.000000 -0.000000 -0.000000 -0.000000 -0.000000 -0.000000 -0.000000 -0.000000 -0.000000 -0.000000 -0.000000 -0.000000 -0.000000 -0.000000 -0.000000 -0.000000 -0.000000 -0.000000 -0.000000 -0.000000 -0.000000 -0.000000 -0.000000 -0.000000 -0.000000 -0.000000 -0.000000 -0.000000 -0.000000 -0.000000 -0.000000 -0.000000 -0.000000 -0.000000 -0.000000 -0.000000 -0.000000 -0.000000 -0.000000 -0.000000 -0.000000 -0.000000 -0.000000 -0.000000 -0.000000 -0.000000 -0.000000 -0.000000 -0.000000 -0.000000 -0.000000 -0.000000 -0.000000 -0.000000 -0.000000 -0.000000 -0.000000 -0.000000 -0.000000 -0.000000 -0.000000 -0.000000 -0.000000 -0.000000 -0.000000 -0.000000 -0.000000 -0.000000 -0.000000 -0.000000 -0.000000 -0.000000 -0.000000 -0.000000 -0.000000 -0.000000 -0.000000 -0.000000 0.000000 -0.000000 -0.000000 0.000000 0.000000 0.000000 0.000000 0.000000 0.000000 0.000000 0.000000 0.000000 0.000000 0.000000 0.000000 0.000000 0.000000 0.000000 0.000000 0.000000 0.000000 0.000000 0.000000 0.000000 0.000000 0.000000 0.000000 0.000000 0.000000 0.000000 0.000000 0.000000 0.000000 0.000000 0.000000 0.000000 0.000000 0.000000 0.000000 0.000000 0.000000 0.000000 0.000000 0.000000 0.000000 0.000000 0.000000 0.000000 0.000000 0.000000 0.000000 0.000000 0.000000 0.000000 0.000000 0.000000 0.000000 0.000000 0.000000 0.000000 0.000000 0.000000 0.000000 0.000000 0.000000 0.000000 0.000000 0.000000 0.000000 0.000001 0.000001 0.000001 0.000001 0.000001 0.000001 0.000001 0.000001 0.000001 0.000001 0.000001 0.000001 0.000001 0.000001 0.000001 0.000001 0.000001 0.000001 0.000002 0.000002 0.000002 0.000002 0.000002 0.000002 0.000003 0.000003 0.000003 0.000003 0.000003 0.000003 0.000005 0.000005 0.000005 0.000005 0.000005 0.000005 0.000007 0.000007 0.000007 0.000007 0.000007 0.000007 0.000011 0.000011 0.000011 0.000010 0.000010 0.000010 0.000015 0.000015 0.000015 0.000015 0.000015 0.000015 0.000023 0.000023 0.000023 0.000022 0.000022 0.000022 0.000033 0.000033 0.000033 0.000033 0.000032 0.000031 0.000047 0.000047 0.000047 0.000047 0.000047 0.000046 0.000069 0.000069 0.000069 0.000068 0.000067 0.000066 0.000099 0.000099 0.000099 0.000098 0.000097 0.000095 0.000141 0.000141 0.000141 0.000141 0.000139 0.000136 0.000202 0.000202 0.000202 0.000201 0.000198 0.000194 0.000287 0.000287 0.000287 0.000286 0.000281 0.000276 0.000406 0.000406 0.000406 0.000405 0.000399 0.000391 0.000572 0.000572 0.000572 0.000571 0.000562 0.000552 0.000804 0.000804 0.000804 0.000802 0.000790 0.000776 0.001124 0.001124 0.001124 0.001122 0.001106 0.001087 0.001565 0.001565 0.001565 0.001563 0.001540 0.001515 0.002171 0.002171 0.002171 0.002167 0.002137 0.002103 0.002997 0.002997 0.002997 0.002993 0.002952 0.002906 0.004121 0.004121 0.004121 0.004115 0.004061 0.003999 0.005641 0.005641 0.005641 0.005633 0.005561 0.005480 0.007687 0.007687 0.007687 0.007678 0.007582 0.007475 0.010430 0.010430 0.010430 0.010417 0.010292 0.010152 0.014088 0.014088 0.014088 0.014071 0.013910 0.013729 0.018942 0.018942 0.018942 0.018922 0.018715 0.018487 0.025353 0.025353 0.025353 0.025327 0.025073 0.024795 0.033775 0.033775 0.033775 0.033745 0.033450 0.033141 0.044777 0.044777 0.044777 0.044748 0.044455 0.044187 0.059057 0.059057 0.059057 0.059043 0.058895 0.058888 0.077444 0.077444 0.077444 0.077487 0.077883 0.078751 0.100853 0.100853 0.100853 0.101060 0.103072 0.106477 0.130120 0.130120 0.130120 0.130756 0.137130 0.147599 0.165581 0.165581 0.165581 0.167183 0.184400 0.214967 0.206326 0.206326 0.206326 0.209608 0.247596 0.344668 0.249751 0.249751 0.249751 0.254973 0.318408 0.498982 0.784424 1.150944 1.534294 1.969826 2.479228 3.080577 3.791460 4.629974 5.614994 6.766091 8.103236 9.646320 11.414514 13.425449 15.694225 18.232242 21.045872 24.134971 27.491278 31.096738 34.921800 38.923767 43.045275 47.212995 51.336669 55.308561 59.003448 62.279219 64.978172 66.929045 67.949797 67.851123 66.440625 63.527534 58.927836 52.469580 43.998172 33.381356 20.513613 5.319651 -12.243385 -32.185376 -54.484913 -79.093998 -105.947276 -134.979191 -166.157238 -199.551162 -235.485536 -274.886304 -320.073736 -376.571018 -457.216275 -591.576253 -848.490668 -1390.807663 -2760.909470 -1639.923818 2648.360261 2353.300153 1000.223231 332.696082 -374.291105 -1691.710827 -3687.712605 446.008363 4905.247688 3413.604039 2694.237759 2550.129284 2593.918422 2721.928666 2902.106347 3137.527058 3473.219287 4052.972585 5309.743043 8653.927299 11115.664363 8119.981175 8080.018309 11878.414081 11780.365213 11612.908727 11695.040112 11493.310096 13370.331694 13468.464636 12522.264592 13729.904116 13733.952402 13791.120820 15232.970546 15528.158103 14289.287929 14351.777808 15904.149079 17498.910539 16026.881082 15444.335239 15468.092001 16688.748771 16985.798541 16985.798541 16985.798541 0.293539 0.293539 0.293539 0.300106 0.380766 0.595761 0.861510 1.181124 1.552159 1.984733 2.494409 3.097384 3.810541 4.651681 5.639527 6.793553 8.133633 9.679557 11.450370 13.463555 15.734038 18.273025 21.086665 24.174578 27.528254 31.129387 34.948181 38.941711 43.052421 47.206839 51.314623 55.268034 58.941935 62.194407 64.868044 66.791994 67.784733 67.657572 66.218808 63.278431 58.653214 52.171999 43.680948 33.048507 20.169789 4.970082 -12.592818 -32.527769 -54.811216 -79.390172 -106.187614 -135.111187 -166.067833 -198.991927 -233.906817 -271.068306 -311.301917 -356.779782 -412.748929 -491.128458 -616.641820 -826.102509 -1099.695072 -537.521932 983.810791 1075.765479 727.481178 425.535468 115.478344 -234.738237 -365.969054 985.229518 2412.249167 2500.420079 2437.685545 2467.252496 2577.390670 2739.426723 2946.661971 3209.331194 3561.283541 4084.652959 4950.525935 6253.567342 7486.278860 7919.291175 8381.633411 9421.989078 10083.882172 10354.794765 10486.628363 11100.159948 11959.004560 12503.505500 12654.242098 13076.195530 13346.451081 13690.196332 14197.912565 14455.322709 14245.167954 14275.488840 15672.179111 16620.360898 15406.253344 15437.889246 16206.287017 17013.758589 17179.146011 17179.146011 17179.146011 0.318257 0.318257 0.318257 0.325732 0.412370 0.637404 0.897797 1.206069 1.570267 2.001057 2.511530 3.116541 3.832368 4.676536 5.667623 6.824995 8.168425 9.717584 11.491374 13.507110 15.779521 18.319585 21.133201 24.219720 27.570347 31.166489 34.978070 38.961912 43.060237 47.199409 51.288997 55.221257 58.871156 62.096991 64.741699 66.634895 67.595647 67.435967 65.964947 62.993439 58.339113 51.831709 43.318249 32.667967 19.776671 4.570266 -12.992816 -32.920489 -55.187245 -79.735515 -106.477466 -135.295765 -166.040831 -198.520695 -232.477835 -267.544081 -303.156557 -338.394381 -371.629505 -399.688995 -415.529998 -401.154255 -300.284185 -34.732209 303.403991 487.537496 521.802397 507.830588 506.909966 575.909667 814.033387 1274.887445 1748.380680 2047.918260 2234.775683 2394.523322 2562.705746 2756.186185 2988.466109 3275.956611 3642.551994 4123.004680 4755.664907 5541.543720 6381.968852 7143.033527 7839.393880 8536.583165 9183.475721 9758.048879 10308.973201 10893.414945 11494.439194 12016.665311 12445.678244 12840.900559 13192.706917 13502.320026 13777.104211 14013.402020 14274.228547 14666.458285 15162.666894 15568.929886 15798.191053 16169.142864 16722.561642 17195.889954 17291.712563 17291.712563 17291.712563 0.321713 0.321713 0.321713 0.329446 0.416561 0.642516 0.902618 1.209831 1.573297 2.003912 2.514574 3.119966 3.836279 4.680992 5.672660 6.830632 8.174661 9.724398 11.498720 13.514911 15.787664 18.327917 21.141526 24.227791 27.577868 31.173111 34.983396 38.965497 43.061599 47.198038 51.284363 55.212833 58.858432 62.079495 64.719022 66.606713 67.561740 67.396240 65.919448 62.942371 58.282838 51.770749 43.253281 32.599806 19.706254 4.498636 -13.064512 -32.990958 -55.254894 -79.798042 -106.530881 -135.332171 -166.043465 -198.452988 -232.259218 -266.996338 -301.884570 -335.521854 -365.224110 -385.589444 -385.483127 -342.742524 -220.723493 1.358905 255.165409 424.842708 494.770998 520.325350 561.793532 678.495262 927.255143 1305.564228 1696.039775 1993.671709 2206.497336 2383.584250 2560.510384 2758.894613 2995.097914 3286.456340 3655.369709 4130.055384 4735.268521 5465.323724 6258.425521 7029.979928 7750.894639 8438.865934 9090.171500 9698.947231 10284.805371 10870.559893 11441.795620 11957.364267 12406.309072 12808.907511 13165.146185 13471.687977 13736.056215 13984.122466 14272.368995 14650.693330 15085.571491 15473.810605 15817.840464 16240.781815 16784.398114 17218.642070 17306.917781 17306.917781 17306.917781 0.321713 0.321713 0.321713 0.329446 0.416561 0.642516 0.902618 1.209831 1.573297 2.003912 2.514574 3.119966 3.836279 4.680992 5.672660 6.830632 8.174661 9.724398 11.498720 13.514911 15.787664 18.327917 21.141526 24.227791 27.577868 31.173111 34.983396 38.965497 43.061599 47.198038 51.284363 55.212833 58.858432 62.079495 64.719022 66.606713 67.561740 67.396240 65.919448 62.942371 58.282838 51.770749 43.253281 32.599806 19.706254 4.498636 -13.064512 -32.990958 -55.254894 -79.798042 -106.530881 -135.332171 -166.043465 -198.452988 -232.259218 -266.996338 -301.884570 -335.521854 -365.224110 -385.589444 -385.483127 -342.742524 -220.723493 1.358905 255.165409 424.842708 494.770998 520.325350 561.793532 678.495262 927.255143 1305.564228 1696.039775 1993.671709 2206.497336 2383.584250 2560.510384 2758.894613 2995.097914 3286.456340 3655.369709 4130.055384 4735.268521 5465.323724 6258.425521 7029.979928 7750.894639 8438.865934 9090.171500 9698.947231 10284.805371 10870.559893 11441.795620 11957.364267 12406.309072 12808.907511 13165.146185 13471.687977 13736.056215 13984.122466 14272.368995 14650.693330 15085.571491 15473.810605 15817.840464 16240.781815 16784.398114 17218.642070 17306.917781 17306.917781 17306.917781 0.321713 0.321713 0.321713 0.329446 0.416561 0.642516 0.902618 1.209831 1.573297 2.003912 2.514574 3.119966 3.836279 4.680992 5.672660 6.830632 8.174661 9.724398 11.498720 13.514911 15.787664 18.327917 21.141526 24.227791 27.577868 31.173111 34.983396 38.965497 43.061599 47.198038 51.284363 55.212833 58.858432 62.079495 64.719022 66.606713 67.561740 67.396240 65.919448 62.942371 58.282838 51.770749 43.253281 32.599806 19.706254 4.498636 -13.064512 -32.990958 -55.254894 -79.798042 -106.530881 -135.332171 -166.043465 -198.452988 -232.259218 -266.996338 -301.884570 -335.521854 -365.224110 -385.589444 -385.483127 -342.742524 -220.723493 1.358905 255.165409 424.842708 494.770998 520.325350 561.793532 678.495262 927.255143 1305.564228 1696.039775 1993.671709 2206.497336 2383.584250 2560.510384 2758.894613 2995.097914 3286.456340 3655.369709 4130.055384 4735.268521 5465.323724 6258.425521 7029.979928 7750.894639 8438.865934 9090.171500 9698.947231 10284.805371 10870.559893 11441.795620 11957.364267 12406.309072 12808.907511 13165.146185 13471.687977 13736.056215 13984.122466 14272.368995 14650.693330 15085.571491 15473.810605 15817.840464 16240.781815 16784.398114 17218.642070 17306.917781 17306.917781 17306.917781 -1387.022559 -1433.366351 -1492.548563 -1570.806532 -1682.171420 -1854.563213 -2157.328979 -2656.374471 -1799.436958 -296.055703 -692.430608 -1614.809669 -1111.099948 684.594401 551.428925 -197.020525 -889.339766 -1088.960014 546.754299 1300.770665 707.043444 261.829143 -171.638096 -829.331267 -1105.022923 757.165681 2064.581003 2239.078676 2581.523886 3174.216137 3906.774336 3649.042812 3716.800936 4620.025967 4924.026091 5575.464764 5540.674317 6033.170465 7239.692425 7235.855074 7991.806130 9965.231851 10059.372464 10024.798783 11347.816946 10888.385763 11616.659615 12309.130287 12276.161486 12423.504580 12822.234229 13520.216601 13914.958610 13968.339542 13968.339542 13968.339542 -1335.034528 -559.420150 4376.781146 14810.987360 15023.793546 15059.263983 15965.324732 14962.191544 15646.471256 17634.029625 16749.349916 14577.355493 16554.553858 15532.859408 15498.060115 15323.099189 15599.826655 17491.472741 16854.143182 16603.924685 14458.085236 15146.484042 15041.322087 14574.581782 14436.142398 14556.793256 17470.165451 15946.228715 15698.591530 17637.099014 15067.950715 17930.572795 14674.558215 19561.226803 16097.528338 20162.673369 17276.801654 18417.691390 15406.458275 15351.076040 17983.313903 16823.249471 15215.701587 15718.197097 17627.748077 15702.993101 12586.562226 15859.483199 13336.711770 17791.595706 17164.934282 14115.911358 14262.173714 14256.495728 14256.495728 14256.495728 -36.643425 2529.247851 12460.183462 4620.844345 14566.187103 15525.544723 12694.651448 17525.804496 16292.657306 13613.679237 15484.648856 16808.768695 15206.648865 14512.284666 13225.231263 14669.834443 12540.830562 14961.551755 14180.266059 16315.884150 15388.415477 15926.371648 15603.925507 16164.461312 17089.618489 16393.906790 13634.647444 13948.657592 16093.023922 14058.234369 10909.666316 13962.332953 14217.278970 14035.730414 14031.077456 14495.593179 15376.909340 13302.334020 14323.880412 18214.532785 14561.542842 12910.275347 12419.251499 17693.425697 13170.206532 12240.469250 15583.788886 16279.562558 12458.774997 19581.980441 16198.090888 15359.372160 14771.976610 14675.228660 14675.228660 14675.228660 -16.231811 2777.496291 14224.595077 14111.317079 14625.495392 12659.438583 14592.434568 12863.478100 14015.157745 17121.317291 14747.402438 15015.793111 14318.300891 12988.127861 16242.564304 13714.301722 13117.371174 13421.768911 14713.258098 14878.618302 12845.509058 15123.915085 9737.633169 15265.405952 14437.501619 14211.037165 15259.843179 13848.916636 13886.092125 16402.403407 14913.811926 15300.465367 15329.130154 13236.940804 15495.383703 12731.823604 15436.647998 13564.697049 13767.424037 12748.458093 13597.063901 14036.589688 14066.001329 13397.832044 12766.861769 123