<VTKFile type="PolyData">
<PolyData>
<Piece NumberOfPoints="8632" NumberOfVerts="8632" NumberOfLines="0" NumberOfStrips="0" NumberOfPolys="0">
<PointData>
<DataArray type="Float64" Name="Pressure" format="ascii">
 -1.092642 -1.092642 -1.092642 -1.112855 -1.340346 -1.932797 -2.617519 -3.420249 -4.349601 -5.420115 -6.654026 -8.079052 -9.727084 -11.633742 -13.838370 -16.384195 -19.318555 -22.693115 -26.564085 -30.992390 -36.043815 -41.789092 -48.303934 -55.669008 -63.969836 -73.296619 -83.743983 -95.410640 -108.398961 -122.814472 -138.765265 -156.361345 -175.713906 -196.934573 -220.134600 -245.424046 -272.910932 -302.700377 -334.893673 -369.587270 -406.871567 -446.829408 -489.534103 -535.046788 -583.412871 -634.657342 -688.778656 -745.740875 -805.463497 -867.807548 -932.554072 -999.364499 -1067.695802 -1136.610910 -1204.382411 -1268.150336 -1324.299325 -1368.259419 -1392.043101 -1379.506744 -1298.893899 -1134.506196 -948.794067 -805.047677 -673.247847 -504.794156 -333.685546 -238.984691 -213.670141 -189.636703 -109.613334 3.812560 59.473695 54.022317 65.422481 156.455781 336.331399 533.360365 693.339657 847.781638 1050.389467 1335.575774 1715.253802 2169.961977 2675.719661 3212.686179 3755.956389 4287.762964 4801.612561 5304.255233 5805.341971 6317.247904 6849.263411 7410.109430 8001.168213 8591.122713 9140.148261 9637.732973 10090.218570 10514.519701 10915.493727 11268.121311 11544.604736 11741.469888 11878.426937 11977.233729 12050.300823 12094.491323 12103.015950 12103.015950 12103.015950 -1.092642 -1.092642 -1.092642 -1.112855 -1.340346 -1.932797 -2.617519 -3.420249 -4.349601 -5.420115 -6.654026 -8.079052 -9.727084 -11.633742 -13.838370 -16.384195 -19.318555 -22.693115 -26.564085 -30.992390 -36.043815 -41.789092 -48.303934 -55.669008 -63.969836 -73.296619 -83.743983 -95.410640 -108.398961 -122.814472 -138.765265 -156.361345 -175.713906 -196.934573 -220.134600 -245.424046 -272.910932 -302.700377 -334.893673 -369.587270 -406.871567 -446.829408 -489.534103 -535.046788 -583.412871 -634.657342 -688.778656 -745.740875 -805.463497 -867.807548 -932.554072 -999.364499 -1067.695802 -1136.610910 -1204.382411 -1268.150336 -1324.299325 -1368.259419 -1392.043101 -1379.506744 -1298.893899 -1134.506196 -948.794067 -805.047677 -673.247847 -504.794156 -333.685546 -238.984691 -213.670141 -189.636703 -109.613334 3.812560 59.473695 54.022317 65.422481 156.455781 336.331399 533.360365 693.339657 847.781638 1050.389467 1335.575774 1715.253802 2169.961977 2675.719661 3212.686179 3755.956389 4287.762964 4801.612561 5304.255233 5805.341971 6317.247904 6849.263411 7410.109430 8001.168213 8591.122713 9140.148261 9637.732973 10090.218570 10514.519701 10915.493727 11268.121311 11544.604736 11741.469888 11878.426937 11977.233729 12050.300823 12094.491323 12103.015950 12103.015950 12103.015950 -1.092642 -1.092642 -1.092642 -1.112855 -1.340346 -1.932797 -2.617519 -3.420249 -4.349601 -5.420115 -6.654026 -8.079052 -9.727084 -11.633742 -13.838370 -16.384195 -19.318555 -22.693115 -26.564085 -30.992390 -36.043815 -41.789092 -48.303934 -55.669008 -63.969836 -73.296619 -83.743983 -95.410640 -108.398961 -122.814472 -138.765265 -156.361345 -175.713906 -196.934573 -220.134600 -245.424046 -272.910932 -302.700377 -334.893673 -369.587270 -406.871567 -446.829408 -489.534103 -535.046788 -583.412871 -634.657342 -688.778656 -745.740875 -805.463497 -867.807548 -932.554072 -999.364499 -1067.695802 -1136.610910 -1204.382411 -1268.150336 -1324.299325 -1368.259419 -1392.043101 -1379.506744 -1298.893899 -1134.506196 -948.794067 -805.047677 -673.247847 -504.794156 -333.685546 -238.984691 -213.670141 -189.636703 -109.613334 3.812560 59.473695 54.022317 65.422481 156.455781 336.331399 533.360365 693.339657 847.781638 1050.389467 1335.575774 1715.253802 2169.961977 2675.719661 3212.686179 3755.956389 4287.762964 4801.612561 5304.255233 5805.341971 6317.247904 6849.263411 7410.109430 8001.168213 8591.122713 9140.148261 9637.732973 10090.218570 10514.519701 10915.493727 11268.121311 11544.604736 11741.469888 11878.426937 11977.233729 12050.300823 12094.491323 12103.015950 12103.015950 12103.015950 -1.086164 -1.086164 -1.086164 -1.105960 -1.331575 -1.919717 -2.605486 -3.412511 -4.344977 -5.416743 -6.650913 -8.075748 -9.723379 -11.629521 -13.833553 -16.378716 -19.312348 -22.686115 -26.556223 -30.983598 -36.034022 -41.778226 -48.291924 -55.655785 -63.955333 -73.280772 -83.726732 -95.391931 -108.378749 -122.792717 -138.741939 -156.336427 -175.687388 -196.906456 -220.104898 -245.392782 -272.878144 -302.666114 -334.857998 -369.550262 -406.833327 -446.790068 -489.493838 -535.005841 -583.371598 -634.616305 -688.738823 -745.704103 -805.433694 -867.793565 -932.576860 -999.474602 -1068.013578 -1137.405007 -1206.051792 -1271.033826 -1328.723975 -1375.646326 -1405.209566 -1400.897320 -1319.562688 -1166.128975 -934.553587 -796.363682 -687.751658 -508.974714 -301.097322 -220.075609 -219.458930 -216.951323 -133.084711 22.359056 81.908667 58.199837 53.185671 138.028335 344.302650 568.538820 728.168087 873.800170 1070.054974 1346.508033 1733.852566 2198.698324 2710.524851 3253.464769 3796.780384 4323.720035 4820.062252 5304.661629 5791.220167 6302.779341 6836.977284 7396.723391 8000.852643 8605.361127 9153.837212 9652.047341 10103.896511 10530.092388 10943.847672 11310.176021 11590.033977 11780.984661 11911.330119 12009.127517 12075.723295 12109.904999 12116.946623 12116.946623 12116.946623 -1.016245 -1.016245 -1.016245 -1.031818 -1.225146 -1.745257 -2.450170 -3.330505 -4.298463 -5.383255 -6.619937 -8.042790 -9.686377 -11.587352 -13.785433 -16.323972 -19.250331 -22.616165 -26.477665 -30.895737 -35.936152 -41.669636 -48.171904 -55.523639 -63.810386 -73.122385 -83.554312 -95.204942 -108.176723 -122.575270 -138.508775 -156.087349 -175.422305 -196.625387 -219.807974 -245.080250 -272.550370 -302.323587 -334.501347 -369.180281 -406.451027 -446.396753 -489.091249 -534.596392 -582.958819 -634.205736 -688.339995 -745.335185 -805.132826 -867.646923 -932.788617 -1000.540555 -1071.143966 -1145.433640 -1225.397742 -1305.119946 -1377.651713 -1455.923613 -1550.441348 -1655.940723 -1840.175641 -1660.890076 -811.460766 -716.147968 -988.358922 -621.634340 186.613466 68.340413 -289.300866 -609.350916 -539.407541 341.298743 484.973101 138.708894 -41.917620 -208.732790 489.053326 1193.943238 1237.844791 1290.274205 1390.039294 1438.232088 1910.512464 2545.735204 3147.229695 3779.436480 4344.603600 4829.000131 5086.981279 5304.645905 5605.081598 6172.682244 6764.441425 7257.017366 8028.789951 8828.694956 9265.811483 9766.831647 10208.678409 10627.656345 11210.273112 11767.773578 12124.530722 12218.057770 12260.767095 12410.627095 12443.259689 12312.944393 12275.912279 12275.912279 12275.912279 -0.917962 -0.917962 -0.917962 -0.929997 -1.068757 -1.437366 -2.111591 -3.189943 -4.233449 -5.341032 -6.583230 -8.004802 -9.644168 -11.539416 -13.730794 -16.261831 -19.179935 -22.536761 -26.388480 -30.795980 -35.825020 -41.546317 -48.035591 -55.373537 -63.645728 -72.942442 -83.358408 -94.992465 -107.947142 -122.328145 -138.243768 -155.804235 -175.120980 -196.305872 -219.470418 -244.724934 -272.177707 -301.934133 -334.095814 -368.759570 -406.016280 -445.949458 -488.633411 -534.130842 -582.489827 -633.740284 -687.890681 -744.927136 -804.820650 -867.556887 -933.224515 -1002.252409 -1076.027161 -1158.529550 -1261.018833 -1355.718909 -1437.081783 -1550.110696 -1723.808723 -2003.138459 -2443.341319 -1703.336201 -157.762853 -551.377747 -1520.267425 -936.517034 786.240785 488.802909 -377.086781 -1231.983580 -1256.763580 806.431269 1178.178779 217.490470 189.721891 -1045.223002 627.370554 2523.981182 2491.080798 2217.869197 3039.377845 929.050826 1809.020960 3002.798376 3621.482483 4701.600807 5047.506167 6115.049865 5403.665837 5447.093850 4803.517767 6317.544573 7485.904828 6741.680077 8317.977106 9962.020789 9015.672617 9738.744991 10350.885110 10219.360427 11044.113171 12245.462237 12672.756645 12401.309159 11853.135147 12750.858896 13296.068847 12700.786502 12518.789017 12518.789017 12518.789017 -0.904267 -0.904267 -0.904267 -0.915798 -1.047548 -1.388982 -0.810870 -0.810870 -0.810870 -0.818365 -0.903562 -1.089773 -0.669126 -0.669126 -0.669126 -0.672449 -0.707717 -0.767551 -0.544605 -0.544605 -0.544605 -0.545856 -0.558219 -0.578644 -0.439565 -0.439565 -0.439565 -0.439917 -0.443284 -0.449413 -0.352724 -0.352724 -0.352724 -0.352740 -0.352824 -0.353800 -0.281760 -0.281760 -0.281760 -0.281665 -0.280689 -0.279925 -0.224194 -0.224194 -0.224194 -0.224074 -0.222870 -0.221640 -0.177744 -0.177744 -0.177744 -0.177631 -0.176491 -0.175254 -0.140428 -0.140428 -0.140428 -0.140330 -0.139342 -0.138246 -0.110568 -0.110568 -0.110568 -0.110485 -0.109662 -0.108739 -0.086761 -0.086761 -0.086761 -0.086694 -0.086020 -0.085261 -0.067850 -0.067850 -0.067850 -0.067796 -0.067250 -0.066634 -0.052882 -0.052882 -0.052882 -0.052838 -0.052399 -0.051904 -0.041076 -0.041076 -0.041076 -0.041041 -0.040690 -0.040294 -0.031798 -0.031798 -0.031798 -0.031770 -0.031491 -0.031175 -0.024532 -0.024532 -0.024532 -0.024510 -0.024288 -0.024038 -0.018862 -0.018862 -0.018862 -0.018845 -0.018670 -0.018472 -0.014453 -0.014453 -0.014453 -0.014439 -0.014302 -0.014146 -0.011037 -0.011037 -0.011037 -0.011026 -0.010918 -0.010797 -0.008400 -0.008400 -0.008400 -0.008391 -0.008307 -0.008212 -0.006371 -0.006371 -0.006371 -0.006364 -0.006299 -0.006225 -0.004815 -0.004815 -0.004815 -0.004810 -0.004759 -0.004702 -0.003627 -0.003627 -0.003627 -0.003623 -0.003584 -0.003540 -0.002723 -0.002723 -0.002723 -0.002720 -0.002690 -0.002656 -0.002037 -0.002037 -0.002037 -0.002035 -0.002012 -0.001986 -0.001519 -0.001519 -0.001519 -0.001517 -0.001499 -0.001479 -0.001128 -0.001128 -0.001128 -0.001127 -0.001114 -0.001098 -0.000836 -0.000836 -0.000836 -0.000834 -0.000824 -0.000813 -0.000617 -0.000617 -0.000617 -0.000616 -0.000608 -0.000599 -0.000453 -0.000453 -0.000453 -0.000453 -0.000447 -0.000441 -0.000332 -0.000332 -0.000332 -0.000332 -0.000327 -0.000323 -0.000243 -0.000243 -0.000243 -0.000242 -0.000239 -0.000235 -0.000177 -0.000177 -0.000177 -0.000176 -0.000174 -0.000171 -0.000128 -0.000128 -0.000128 -0.000128 -0.000126 -0.000124 -0.000093 -0.000093 -0.000093 -0.000092 -0.000091 -0.000090 -0.000067 -0.000067 -0.000067 -0.000067 -0.000066 -0.000065 -0.000048 -0.000048 -0.000048 -0.000048 -0.000047 -0.000046 -0.000034 -0.000034 -0.000034 -0.000034 -0.000034 -0.000033 -0.000024 -0.000024 -0.000024 -0.000024 -0.000024 -0.000024 -0.000017 -0.000017 -0.000017 -0.000017 -0.000017 -0.000017 -0.000012 -0.000012 -0.000012 -0.000012 -0.000012 -0.000012 -0.000009 -0.000009 -0.000009 -0.000009 -0.000009 -0.000008 -0.000006 -0.000006 -0.000006 -0.000006 -0.000006 -0.000006 -0.000004 -0.000004 -0.000004 -0.000004 -0.000004 -0.000004 -0.000003 -0.000003 -0.000003 -0.000003 -0.000003 -0.000003 -0.000002 -0.000002 -0.000002 -0.000002 -0.000002 -0.000002 -0.000001 -0.000001 -0.000001 -0.000001 -0.000001 -0.000001 -0.000001 -0.000001 -0.000001 -0.000001 -0.000001 -0.000001 -0.000001 -0.000001 -0.000001 -0.000001 -0.000001 -0.000001 -0.000000 -0.000000 -0.000000 -0.000000 -0.000000 -0.000000 -0.000000 -0.000000 -0.000000 -0.000000 -0.000000 -0.000000 -0.000000 -0.000000 -0.000000 -0.000000 -0.000000 -0.000000 -0.000000 -0.000000 -0.000000 -0.000000 -0.000000 -0.000000 -0.000000 -0.000000 -0.000000 -0.000000 -0.000000 -0.000000 -0.000000 -0.000000 -0.000000 -0.000000 -0.000000 -0.000000 -0.000000 -0.000000 -0.000000 -0.000000 -0.000000 -0.000000 -0.000000 -0.000000 -0.000000 -0.000000 -0.000000 -0.000000 -0.000000 -0.000000 -0.000000 -0.000000 -0.000000 -0.000000 -0.000000 -0.000000 -0.000000 -0.000000 -0.000000 -0.000000 -0.000000 -0.000000 -0.000000 -0.000000 -0.000000 -0.000000 -0.000000 -0.000000 -0.000000 -0.000000 -0.000000 -0.000000 -0.000000 -0.000000 -0.000000 -0.000000 -0.000000 -0.000000 -0.000000 -0.000000 -0.000000 -0.000000 -0.000000 -0.000000 -0.000000 -0.000000 -0.000000 -0.000000 -0.000000 -0.000000 -0.000000 -0.000000 -0.000000 -0.000000 -0.000000 -0.000000 -0.000000 -0.000000 -0.000000 -0.000000 -0.000000 -0.000000 -0.000000 -0.000000 -0.000000 -0.000000 -0.000000 -0.000000 -0.000000 -0.000000 -0.000000 -0.000000 -0.000000 -0.000000 -0.000000 -0.000000 -0.000000 -0.000000 -0.000000 -0.000000 -0.000000 -0.000000 -0.000000 -0.000000 -0.000000 -0.000000 -0.000000 -0.000000 -0.000000 -0.000000 -0.000000 -0.000000 -0.000000 -0.000000 -0.000000 -0.000000 -0.000000 -0.000000 -0.000000 -0.000000 -0.000000 -0.000000 -0.000000 -0.000000 -0.000000 -0.000000 -0.000000 -0.000000 -0.000000 -0.000000 -0.000000 -0.000000 -0.000000 -0.000000 -0.000000 -0.000000 -0.000000 -0.000000 -0.000000 -0.000000 -0.000000 -0.000000 -0.000000 -0.000000 -0.000000 -0.000000 -0.000000 -0.000000 -0.000000 -0.000000 -0.000000 -0.000000 -0.000000 -0.000000 -0.000000 -0.000000 -0.000000 -0.000000 -0.000000 -0.000000 -0.000000 -0.000000 -0.000000 -0.000000 -0.000000 -0.000000 -0.000000 -0.000000 -0.000000 -0.000000 -0.000000 -0.000000 -0.000000 -0.000000 -0.000000 -0.000000 -0.000000 -0.000000 -0.000000 -0.000000 -0.000000 -0.000000 -0.000000 -0.000000 -0.000000 -0.000000 -0.000000 -0.000000 -0.000000 -0.000000 -0.000000 -0.000000 -0.000000 -0.000000 -0.000000 -0.000000 -0.000000 -0.000000 -0.000000 -0.000000 -0.000000 -0.000000 -0.000000 -0.000000 -0.000000 -0.000000 -0.000000 -0.000000 -0.000000 -0.000000 -0.000000 -0.000000 -0.000000 -0.000000 -0.000000 -0.000000 -0.000000 -0.000000 -0.000000 -0.000000 -0.000000 -0.000000 -0.000000 -0.000000 -0.000000 -0.000000 -0.000000 -0.000000 -0.000000 -0.000000 -0.000000 -0.000000 -0.000000 -0.000000 -0.000000 -0.000000 -0.000000 -0.000000 -0.000000 -0.000000 -0.000000 -0.000000 -0.000000 -0.000000 -0.000000 -0.000000 -0.000000 -0.000000 -0.000000 -0.000000 -0.000000 -0.000000 -0.000000 -0.000000 -0.000000 -0.000000 -0.000000 -0.000000 -0.000000 -0.000000 -0.000000 -0.000000 -0.000000 -0.000000 -0.000000 -0.000000 -0.000000 -0.000000 -0.000000 -0.000000 -0.000000 -0.000000 -0.000000 -0.000000 -0.000000 -0.000000 -0.000000 -0.000000 -0.000000 -0.000000 -0.000000 -0.000000 -0.000000 -0.000000 -0.000000 -0.000000 -0.000000 -0.000000 -0.000000 -0.000000 -0.000000 -0.000000 -0.000000 -0.000000 -0.000000 -0.000000 -0.000000 -0.000000 -0.000000 -0.000000 -0.000000 -0.000000 -0.000000 -0.000000 -0.000000 -0.000000 -0.000000 -0.000000 -0.000000 -0.000000 -0.000000 -0.000000 -0.000000 -0.000000 -0.000000 -0.000000 -0.000000 -0.000000 -0.000000 -0.000000 -0.000000 -0.000000 -0.000000 -0.000000 -0.000000 -0.000000 -0.000000 -0.000000 -0.000000 -0.000000 -0.000000 -0.000000 -0.000000 -0.000000 -0.000000 -0.000000 -0.000000 -0.000000 -0.000000 -0.000000 -0.000000 -0.000000 -0.000000 -0.000000 -0.000000 -0.000000 -0.000000 -0.000000 -0.000000 -0.000000 -0.000000 -0.000000 -0.000000 -0.000000 -0.000000 -0.000000 -0.000000 -0.000000 -0.000000 -0.000000 -0.000000 -0.000000 -0.000000 -0.000000 -0.000000 -0.000000 -0.000000 -0.000000 -0.000000 -0.000000 -0.000000 -0.000000 -0.000000 -0.000000 -0.000000 -0.000000 -0.000000 -0.000000 -0.000000 -0.000000 -0.000000 -0.000000 -0.000000 -0.000000 -0.000000 -0.000000 -0.000000 -0.000000 -0.000000 -0.000000 -0.000000 -0.000000 -0.000000 -0.000000 -0.000000 -0.000000 -0.000000 -0.000000 -0.000000 -0.000000 -0.000000 -0.000000 -0.000000 -0.000000 -0.000000 -0.000000 -0.000000 -0.000000 -0.000000 -0.000000 -0.000000 -0.000000 -0.000000 -0.000000 -0.000000 -0.000000 -0.000000 -0.000000 -0.000000 -0.000000 -0.000000 -0.000000 -0.000000 -0.000000 -0.000000 -0.000000 -0.000000 -0.000000 -0.000000 -0.000000 -0.000000 -0.000000 -0.000000 -0.000000 -0.000000 -0.000000 -0.000000 -0.000000 -0.000000 -0.000000 -0.000000 -0.000000 -0.000000 -0.000000 -0.000000 -0.000000 -0.000000 -0.000000 -0.000000 -0.000000 -0.000000 -0.000000 -0.000000 -0.000000 -0.000000 -0.000000 -0.000000 -0.000000 -0.000000 -0.000000 -0.000000 -0.000000 -0.000000 -0.000000 -0.000000 -0.000000 -0.000000 -0.000000 -0.000000 -0.000000 -0.000000 -0.000000 -0.000000 -0.000000 -0.000000 -0.000000 -0.000000 -0.000000 -0.000000 -0.000000 -0.000000 -0.000000 -0.000000 -0.000000 -0.000000 -0.000000 -0.000000 -0.000000 -0.000000 -0.000000 -0.000000 -0.000000 -0.000000 -0.000000 -0.000000 -0.000000 -0.000000 -0.000000 -0.000000 -0.000000 -0.000000 -0.000000 -0.000000 -0.000000 -0.000000 -0.000000 -0.000000 -0.000000 -0.000000 -0.000000 -0.000000 -0.000000 -0.000000 -0.000000 -0.000000 -0.000000 -0.000000 -0.000000 -0.000000 -0.000000 -0.000000 -0.000000 -0.000000 -0.000000 -0.000000 -0.000000 -0.000000 -0.000000 -0.000000 -0.000000 -0.000000 -0.000000 -0.000000 -0.000000 -0.000000 -0.000000 -0.000000 -0.000000 -0.000000 -0.000000 -0.000000 -0.000000 -0.000000 -0.000000 -0.000000 -0.000000 -0.000000 -0.000000 -0.000000 -0.000000 -0.000000 -0.000000 -0.000000 -0.000000 -0.000000 -0.000000 -0.000000 -0.000000 -0.000000 -0.000000 -0.000000 -0.000000 -0.000000 -0.000000 -0.000000 -0.000000 -0.000000 -0.000000 -0.000000 -0.000000 -0.000000 -0.000000 -0.000000 -0.000000 -0.000000 -0.000000 -0.000000 -0.000000 -0.000000 -0.000000 -0.000000 -0.000000 -0.000000 -0.000000 -0.000000 -0.000000 -0.000000 -0.000000 -0.000000 -0.000000 -0.000000 -0.000000 -0.000000 -0.000000 -0.000000 -0.000000 -0.000000 -0.000000 -0.000000 -0.000000 -0.000000 -0.000000 -0.000000 -0.000000 -0.000000 -0.000000 -0.000000 -0.000000 -0.000000 -0.000000 -0.000000 -0.000000 -0.000000 -0.000000 -0.000000 -0.000000 -0.000000 -0.000000 -0.000000 -0.000000 -0.000000 -0.000000 -0.000000 -0.000000 -0.000000 -0.000000 -0.000000 -0.000000 -0.000000 -0.000000 -0.000000 -0.000000 -0.000000 -0.000000 -0.000000 -0.000000 -0.000000 -0.000000 -0.000000 -0.000000 -0.000000 -0.000000 -0.000000 -0.000000 -0.000000 -0.000000 -0.000000 -0.000000 -0.000000 -0.000000 -0.000000 -0.000000 -0.000000 -0.000000 -0.000000 -0.000000 -0.000000 -0.000000 -0.000000 -0.000000 -0.000000 -0.000000 -0.000000 -0.000000 -0.000000 -0.000000 -0.000000 -0.000000 -0.000000 -0.000000 -0.000000 -0.000000 -0.000000 -0.000000 -0.000000 -0.000000 -0.000000 -0.000000 -0.000000 -0.000000 -0.000000 -0.000000 -0.000000 -0.000000 -0.000000 -0.000000 -0.000000 -0.000000 -0.000000 -0.000000 -0.000000 -0.000000 -0.000000 -0.000000 -0.000000 -0.000000 -0.000000 -0.000000 -0.000000 -0.000000 -0.000000 -0.000000 -0.000000 -0.000000 -0.000000 -0.000000 -0.000000 -0.000000 -0.000000 -0.000000 -0.000000 -0.000000 -0.000000 -0.000000 -0.000000 -0.000000 -0.000000 -0.000000 -0.000000 -0.000000 -0.000000 -0.000000 -0.000000 -0.000000 -0.000000 -0.000000 -0.000000 -0.000000 -0.000000 -0.000000 -0.000000 -0.000000 -0.000000 -0.000000 -0.000000 -0.000000 -0.000000 -0.000000 -0.000000 -0.000000 -0.000000 -0.000000 -0.000000 -0.000000 -0.000000 -0.000000 -0.000000 -0.000000 -0.000000 -0.000000 -0.000000 -0.000000 -0.000000 -0.000000 -0.000000 -0.000000 -0.000000 -0.000000 -0.000000 -0.000000 -0.000000 -0.000000 -0.000000 -0.000000 -0.000000 -0.000000 -0.000000 -0.000000 -0.000000 -0.000000 -0.000000 -0.000000 -0.000000 -0.000000 -0.000000 -0.000000 -0.000000 -0.000000 -0.000000 -0.000000 -0.000000 -0.000000 -0.000000 -0.000000 -0.000000 -0.000000 -0.000000 -0.000000 -0.000000 -0.000000 -0.000000 -0.000000 -0.000000 -0.000000 -0.000000 -0.000000 -0.000001 -0.000001 -0.000001 -0.000001 -0.000001 -0.000001 -0.000001 -0.000001 -0.000001 -0.000001 -0.000001 -0.000001 -0.000001 -0.000001 -0.000001 -0.000001 -0.000001 -0.000001 -0.000001 -0.000001 -0.000001 -0.000001 -0.000001 -0.000001 -0.000002 -0.000002 -0.000002 -0.000002 -0.000002 -0.000002 -0.000002 -0.000002 -0.000002 -0.000002 -0.000002 -0.000002 -0.000002 -0.000002 -0.000002 -0.000002 -0.000002 -0.000002 -0.000003 -0.000003 -0.000003 -0.000003 -0.000003 -0.000003 -0.000004 -0.000004 -0.000004 -0.000004 -0.000004 -0.000004 -0.000004 -0.000004 -0.000004 -0.000004 -0.000004 -0.000004 -0.000005 -0.000005 -0.000005 -0.000005 -0.000004 -0.000004 -0.000005 -0.000005 -0.000005 -0.000005 -0.000004 -0.000003 -0.000005 -0.000005 -0.000005 -0.000005 -0.000003 0.000001 -0.000004 -0.000004 -0.000004 -0.000004 0.000001 0.000013 -0.000003 -0.000003 -0.000003 -0.000003 0.000005 0.000030 0.000075 0.000146 0.000244 0.000387 0.000595 0.000898 0.001333 0.001955 0.002835 0.004072 0.005802 0.008214 0.011574 0.016268 0.022874 0.032285 0.045943 0.066239 0.097239 0.145949 0.224497 0.353807 0.569646 0.932256 1.541132 2.556575 4.228991 6.934616 11.210911 17.773899 27.481260 41.190375 59.506534 82.513176 108.662669 126.357201 85.427670 -120.834193 -250.805850 -179.876411 111.393856 322.598498 495.237562 670.185392 805.771248 781.359790 302.625965 -449.013918 -803.766291 -935.627977 627.476466 1233.863827 -2779.390718 2227.635080 4801.962732 -683.469420 1927.307544 3507.197007 3478.467141 5364.167153 -2923.441952 5640.331261 -1586.505801 2983.817981 4739.894525 3956.025777 5078.822741 4136.599519 5431.291849 2177.020114 2284.700562 9783.214316 6546.854606 7574.107076 11067.341406 11171.423662 9570.483820 14437.916096 12209.165049 13978.042892 16127.095234 15275.015636 15914.123115 15201.974819 15219.788548 14466.562486 17076.068755 15784.129728 16947.196561 17650.156843 17407.810069 19522.489354 21962.735743 19173.607861 20248.879830 20501.592449 21893.042466 20529.814786 18467.252615 18890.672831 21483.590108 22502.587158 22377.950978 22377.950978 22377.950978 -0.000002 -0.000002 -0.000002 -0.000001 0.000010 0.000041 0.000086 0.000153 0.000252 0.000397 0.000609 0.000917 0.001360 0.001992 0.002886 0.004143 0.005901 0.008351 0.011767 0.016543 0.023276 0.032891 0.046886 0.067754 0.099739 0.150156 0.231650 0.365997 0.590316 0.966892 1.598111 2.647935 4.370482 7.143630 11.499708 18.134527 27.859267 41.447536 59.366748 81.481679 106.421018 127.856435 124.149338 73.502009 26.694918 79.573473 216.084831 363.573459 522.218423 702.018017 874.800219 977.461765 954.101568 844.122081 664.750469 902.934913 1769.733910 2043.641296 1287.831983 2337.078590 3010.374036 2319.657147 3009.917448 3459.083519 4697.561111 4353.128550 3508.887203 5105.446037 4122.660528 4771.883862 5107.509390 5402.890122 5821.345258 6524.534720 6980.289655 7310.283278 8007.384844 10127.519873 10289.082044 10763.466557 12178.779026 12158.262415 11811.878795 13526.035019 13398.267767 14066.372604 14684.499942 15042.449029 15951.475675 16068.748519 16274.065703 16159.112988 17448.358755 17141.474464 18043.442928 18317.454678 18460.587439 19547.879747 21259.754998 20581.499749 20916.244101 20730.579819 21251.316189 21735.771481 21650.309205 22302.264107 22919.481744 22047.639051 21918.057410 21918.057410 21918.057410 -0.000001 -0.000001 -0.000001 -0.000000 0.000012 0.000045 0.000092 0.000160 0.000260 0.000408 0.000625 0.000939 0.001392 0.002036 0.002947 0.004226 0.006015 0.008511 0.011991 0.016865 0.023747 0.033604 0.047999 0.069548 0.102706 0.155152 0.240144 0.380463 0.614812 1.007868 1.665392 2.755623 4.537087 7.389901 11.841495 18.566977 28.329629 41.817357 59.358465 80.597729 104.250734 127.708058 146.745903 159.407198 175.687702 215.185862 288.729488 398.590555 547.617560 732.045129 936.096662 1135.335960 1309.813998 1463.348636 1638.876794 1905.187695 2230.987426 2438.109007 2558.155948 2797.270804 3033.741671 3237.122338 3575.262966 3992.774965 4401.058417 4706.289101 5009.227199 5408.141273 5715.124512 6147.095271 6609.149414 7129.309804 7736.071118 8319.666096 8886.914850 9445.957576 10115.636365 10795.005101 11339.461737 11870.040353 12382.998436 12749.963947 13095.412612 13530.013433 13922.919900 14399.628000 14938.486835 15451.551596 15905.041849 16282.155072 16683.700909 17207.126274 17838.443630 18432.129206 19049.324426 19624.948321 20192.368263 20775.126094 21330.379132 21622.405226 21903.518089 22106.829539 22271.285511 22365.653962 22304.024360 22148.320306 21910.820284 21728.784389 21733.733738 21733.733738 21733.733738 -0.000001 -0.000001 -0.000001 -0.000000 0.000012 0.000046 0.000093 0.000161 0.000261 0.000410 0.000628 0.000943 0.001397 0.002044 0.002958 0.004241 0.006036 0.008539 0.012032 0.016923 0.023833 0.033734 0.048203 0.069876 0.103249 0.156067 0.241699 0.383111 0.619291 1.015354 1.677668 2.775250 4.567428 7.434756 11.903875 18.646409 28.417546 41.890818 59.371566 80.468604 103.900971 127.526617 148.870517 167.648057 190.171517 229.245170 297.566468 403.804082 551.642196 736.779515 945.383081 1157.478059 1356.922600 1545.580317 1751.567281 2007.708718 2283.175118 2492.651825 2649.761368 2841.879966 3061.172618 3311.678916 3640.517196 4021.687626 4404.476752 4753.965586 5114.452040 5505.653051 5892.708512 6337.530749 6835.459361 7391.255006 7989.420587 8570.320634 9129.339500 9694.945489 10299.805188 10897.290370 11435.664206 11946.006058 12421.328208 12820.488362 13192.125750 13584.904215 13986.860538 14452.841348 14970.226397 15473.654591 15920.213532 16324.194564 16766.607879 17307.159859 17924.566698 18546.310974 19171.707236 19776.508992 20356.357804 20917.398232 21402.028493 21760.460191 22065.707234 22326.640989 22470.754157 22442.937704 22278.765395 22046.666922 21837.685274 21728.569522 21711.839565 21711.839565 21711.839565 -0.000001 -0.000001 -0.000001 -0.000000 0.000012 0.000046 0.000093 0.000161 0.000261 0.000410 0.000628 0.000943 0.001397 0.002044 0.002958 0.004241 0.006036 0.008539 0.012032 0.016923 0.023833 0.033734 0.048203 0.069876 0.103249 0.156067 0.241699 0.383111 0.619291 1.015354 1.677668 2.775250 4.567428 7.434756 11.903875 18.646409 28.417546 41.890818 59.371566 80.468604 103.900971 127.526617 148.870517 167.648057 190.171517 229.245170 297.566468 403.804082 551.642196 736.779515 945.383081 1157.478059 1356.922600 1545.580317 1751.567281 2007.708718 2283.175118 2492.651825 2649.761368 2841.879966 3061.172618 3311.678916 3640.517196 4021.687626 4404.476752 4753.965586 5114.452040 5505.653051 5892.708512 6337.530749 6835.459361 7391.255006 7989.420587 8570.320634 9129.339500 9694.945489 10299.805188 10897.290370 11435.664206 11946.006058 12421.328208 12820.488362 13192.125750 13584.904215 13986.860538 14452.841348 14970.226397 15473.654591 15920.213532 16324.194564 16766.607879 17307.159859 17924.566698 18546.310974 19171.707236 19776.508992 20356.357804 20917.398232 21402.028493 21760.460191 22065.707234 22326.640989 22470.754157 22442.937704 22278.765395 22046.666922 21837.685274 21728.569522 21711.839565 21711.839565 21711.839565 -0.000001 -0.000001 -0.000001 -0.000000 0.000012 0.000046 0.000093 0.000161 0.000261 0.000410 0.000628 0.000943 0.001397 0.002044 0.002958 0.004241 0.006036 0.008539 0.012032 0.016923 0.023833 0.033734 0.048203 0.069876 0.103249 0.156067 0.241699 0.383111 0.619291 1.015354 1.677668 2.775250 4.567428 7.434756 11.903875 18.646409 28.417546 41.890818 59.371566 80.468604 103.900971 127.526617 148.870517 167.648057 190.171517 229.245170 297.566468 403.804082 551.642196 736.779515 945.383081 1157.478059 1356.922600 1545.580317 1751.567281 2007.708718 2283.175118 2492.651825 2649.761368 2841.879966 3061.172618 3311.678916 3640.517196 4021.687626 4404.476752 4753.965586 5114.452040 5505.653051 5892.708512 6337.530749 6835.459361 7391.255006 7989.420587 8570.320634 9129.339500 9694.945489 10299.805188 10897.290370 11435.664206 11946.006058 12421.328208 12820.488362 13192.125750 13584.904215 13986.860538 14452.841348 14970.226397 15473.654591 15920.213532 16324.194564 16766.607879 17307.159859 17924.566698 18546.310974 19171.707236 19776.508992 20356.357804 20917.398232 21402.028493 21760.460191 22065.707234 22326.640989 22470.754157 22442.937704 22278.765395 22046.666922 21837.685274 21728.569522 21711.839565 21711.839565 21711.839565 -1376.529671 -1461.236752 -1587.149284 -1784.428568 -2118.938019 -2422.019170 -1153.540765 69.938520 -758.721753 -1658.824702 -597.857025 931.389652 321.408308 -544.209011 -1457.678678 -1009.418411 1166.088649 963.947733 134.810659 182.022978 -1076.919673 1118.986447 3036.572497 2621.157156 2590.637831 2958.790065 483.593236 2421.671173 3113.624477 4019.873121 4749.544752 5416.959609 6357.677576 5325.995450 5360.689322 4692.257985 7019.688782 7437.802254 6707.534620 8977.162633 10225.774942 8858.353955 10140.608694 10263.846907 10130.691833 11366.060169 12519.011926 12699.860262 12222.669687 11686.596414 13061.981821 13326.442014 12680.848656 12554.574762 12554.574762 12554.574762 -2325.655289 -189.473230 -6013.305065 16121.534872 15202.242630 11118.054282 15951.565417 13860.935708 13571.967349 16023.835106 14324.935126 15244.846337 14218.145594 13195.134509 13569.823159 13267.813056 12581.295243 11640.798240 13838.720348 14588.459778 13493.420075 12862.155685 11655.895023 11686.631773 11096.379289 10608.867141 14489.927382 10908.916918 11358.768517 13346.363088 11746.431459 14244.356056 11535.344660 13065.830150 12149.185807 12547.451453 13606.099968 11586.678907 13732.107898 13280.130072 12991.030012 14039.923601 11154.365818 13047.528899 14553.376296 14488.937130 10451.199224 13210.185610 9888.919923 12325.143352 12253.611520 13155.496652 12909.770449 12792.236194 12792.236194 12792.236194 134.365954 -249.799929 11153.212214 6316.134539 13954.303566 13993.189443 14461.211506 15487.166564 12093.212828 12689.504930 13540.390990 14036.160551 13993.323208 12805.717252 12496.608412 13848.935889 11255.497941 14306.338848 14369.301165 14547.566002 11845.843572 11980.902188 10327.566384 12094.779336 12509.894886 10067.964276 14230.178177 11933.215931 12141.416080 11208.548471 9235.825955 9948.857638 11041.696928 12458.108715 13534.826328 10016.085534 12050.400617 11810.063907 10647.941435 12464.731808 12561.646907 10638.186239 9874.013305 12667.768722 9552.238147 10541.721684 11660.118859 13147.536511 9820.668006 12494.999114 12787.298374 12740.560020 13119.458777 13141.798429 13141.798429 13141.798429 -845.322562 799.455533 15368.844379 12980.318306 14271.548444 11894.890307 16249.145321 14728.440441 13756.552764 14657.024194 15711.422267 12988.515304 14486.356456 12370.231429 13007.152172 15180.731492 14995.733265 14045.017733 13845.139318 13670.788258 14598.169232 12859.898281 9979.710194 14311.874957 12557.128898 9992.006000 14656.777006 14541.552640 10788.44340