<VTKFile type="PolyData">
<PolyData>
<Piece NumberOfPoints="8632" NumberOfVerts="8632" NumberOfLines="0" NumberOfStrips="0" NumberOfPolys="0">
<PointData>
<DataArray type="Float64" Name="Pressure" format="ascii">
 -0.031674 -0.031674 -0.031674 -0.033017 -0.048320 -0.089372 -0.140020 -0.204942 -0.288406 -0.396022 -0.535129 -0.714960 -0.946917 -1.244961 -1.626062 -2.110719 -2.723523 -3.493760 -4.456036 -5.650933 -7.125656 -8.934675 -11.140334 -13.813410 -17.033609 -20.889963 -25.481140 -30.915625 -37.311788 -44.797818 -53.511537 -63.600082 -75.219481 -88.534107 -103.716034 -120.944282 -140.403939 -162.285153 -186.781959 -214.090896 -244.409370 -277.933692 -314.856702 -355.364870 -399.634661 -447.827877 -500.085379 -556.518130 -617.193409 -682.111615 -751.163430 -824.043310 -900.062456 -977.736446 -1053.909437 -1122.632232 -1174.796904 -1197.058633 -1168.135642 -1059.772966 -879.057764 -705.672226 -577.358827 -441.085324 -283.238327 -187.075107 -181.663900 -202.586473 -177.229744 -100.149873 -53.181303 -69.983301 -80.691855 -23.239128 60.161449 98.487881 129.757061 213.768453 304.397799 325.096256 299.301208 310.955945 412.210167 558.198991 662.234708 728.409917 836.655638 1055.329042 1364.040629 1671.734271 1950.561302 2256.514956 2663.572872 3205.110732 3858.198403 4585.705577 5354.456280 6115.738558 6839.195758 7531.993998 8189.824383 8788.308073 9323.256076 9843.036392 10411.998056 11038.982240 11681.731145 12125.908632 12210.905152 12210.905152 12210.905152 -0.031674 -0.031674 -0.031674 -0.033017 -0.048320 -0.089372 -0.140020 -0.204942 -0.288406 -0.396022 -0.535129 -0.714960 -0.946917 -1.244961 -1.626062 -2.110719 -2.723523 -3.493760 -4.456036 -5.650933 -7.125656 -8.934675 -11.140334 -13.813410 -17.033609 -20.889963 -25.481140 -30.915625 -37.311788 -44.797818 -53.511537 -63.600082 -75.219481 -88.534107 -103.716034 -120.944282 -140.403939 -162.285153 -186.781959 -214.090896 -244.409370 -277.933692 -314.856702 -355.364870 -399.634661 -447.827877 -500.085379 -556.518130 -617.193409 -682.111615 -751.163430 -824.043310 -900.062456 -977.736446 -1053.909437 -1122.632232 -1174.796904 -1197.058633 -1168.135642 -1059.772966 -879.057764 -705.672226 -577.358827 -441.085324 -283.238327 -187.075107 -181.663900 -202.586473 -177.229744 -100.149873 -53.181303 -69.983301 -80.691855 -23.239128 60.161449 98.487881 129.757061 213.768453 304.397799 325.096256 299.301208 310.955945 412.210167 558.198991 662.234708 728.409917 836.655638 1055.329042 1364.040629 1671.734271 1950.561302 2256.514956 2663.572872 3205.110732 3858.198403 4585.705577 5354.456280 6115.738558 6839.195758 7531.993998 8189.824383 8788.308073 9323.256076 9843.036392 10411.998056 11038.982240 11681.731145 12125.908632 12210.905152 12210.905152 12210.905152 -0.031674 -0.031674 -0.031674 -0.033017 -0.048320 -0.089372 -0.140020 -0.204942 -0.288406 -0.396022 -0.535129 -0.714960 -0.946917 -1.244961 -1.626062 -2.110719 -2.723523 -3.493760 -4.456036 -5.650933 -7.125656 -8.934675 -11.140334 -13.813410 -17.033609 -20.889963 -25.481140 -30.915625 -37.311788 -44.797818 -53.511537 -63.600082 -75.219481 -88.534107 -103.716034 -120.944282 -140.403939 -162.285153 -186.781959 -214.090896 -244.409370 -277.933692 -314.856702 -355.364870 -399.634661 -447.827877 -500.085379 -556.518130 -617.193409 -682.111615 -751.163430 -824.043310 -900.062456 -977.736446 -1053.909437 -1122.632232 -1174.796904 -1197.058633 -1168.135642 -1059.772966 -879.057764 -705.672226 -577.358827 -441.085324 -283.238327 -187.075107 -181.663900 -202.586473 -177.229744 -100.149873 -53.181303 -69.983301 -80.691855 -23.239128 60.161449 98.487881 129.757061 213.768453 304.397799 325.096256 299.301208 310.955945 412.210167 558.198991 662.234708 728.409917 836.655638 1055.329042 1364.040629 1671.734271 1950.561302 2256.514956 2663.572872 3205.110732 3858.198403 4585.705577 5354.456280 6115.738558 6839.195758 7531.993998 8189.824383 8788.308073 9323.256076 9843.036392 10411.998056 11038.982240 11681.731145 12125.908632 12210.905152 12210.905152 12210.905152 -0.031384 -0.031384 -0.031384 -0.032695 -0.047845 -0.088548 -0.139186 -0.204318 -0.287912 -0.395521 -0.534538 -0.714224 -0.945992 -1.243801 -1.624614 -2.108927 -2.721320 -3.491070 -4.452776 -5.647008 -7.120964 -8.929103 -11.133763 -13.805714 -17.024655 -20.879614 -25.469256 -30.902065 -37.296411 -44.780488 -53.492119 -63.578449 -75.195512 -88.507689 -103.687067 -120.912674 -140.369613 -162.248049 -186.742035 -214.048132 -244.363775 -277.885313 -314.805643 -355.311319 -399.578966 -447.770705 -500.028108 -556.463798 -617.149033 -682.093946 -751.213138 -824.259676 -900.684593 -979.313189 -1057.378511 -1129.176545 -1185.903582 -1216.432195 -1199.646293 -1085.927587 -852.384410 -694.755277 -586.112745 -461.094801 -259.825512 -159.607521 -175.104562 -221.085214 -198.889559 -89.394121 -31.036183 -72.888365 -107.611350 -35.286465 75.548287 99.234576 105.644722 206.614634 327.414052 339.668182 283.120230 272.717816 388.773132 568.195803 670.507700 706.984434 787.258578 1011.146731 1356.010828 1674.875296 1933.241688 2209.606297 2597.642711 3141.309907 3799.171217 4524.026341 5301.054015 6071.338155 6790.255816 7484.578334 8154.327584 8769.563837 9308.118187 9815.019324 10376.424099 11010.000089 11663.116937 12109.737345 12193.055188 12193.055188 12193.055188 -0.028294 -0.028294 -0.028294 -0.029313 -0.042121 -0.077501 -0.128442 -0.197761 -0.282948 -0.390535 -0.528649 -0.706890 -0.936763 -1.232218 -1.610170 -2.091039 -2.699326 -3.464217 -4.420219 -5.607812 -7.074098 -8.873453 -11.068132 -13.728835 -16.935201 -20.776216 -25.350515 -30.766572 -37.142763 -44.607307 -53.298068 -63.362249 -74.955956 -88.243657 -103.397537 -120.596744 -140.026514 -161.877169 -186.342950 -213.620646 -243.907980 -277.401679 -314.295178 -354.775891 -399.021987 -447.198725 -499.454594 -555.918332 -616.699900 -681.903983 -751.678185 -826.350938 -906.784651 -995.081276 -1096.050837 -1204.053406 -1308.062281 -1430.340237 -1572.578439 -1419.336654 -487.492206 -312.721769 -743.767388 -804.453852 71.718808 320.364074 -102.842783 -485.281850 -631.048579 105.815078 406.999983 -114.332309 -573.465755 -267.832629 477.368892 146.359168 -336.505813 45.937384 765.008325 566.693467 77.409483 -289.193347 9.742794 831.047392 844.225117 454.909096 125.211298 352.828251 1355.653157 1801.532423 1757.926963 1625.208350 1756.306387 2375.995724 3123.202992 3758.376850 4644.970846 5592.151122 6264.069623 6971.685295 7780.717610 8677.650973 9388.913260 9758.988341 10173.470653 10798.109927 11532.902368 11944.571513 12003.179740 12003.179740 12003.179740 -0.024116 -0.024116 -0.024116 -0.024886 -0.033850 -0.058235 -0.105500 -0.187205 -0.276589 -0.384659 -0.521916 -0.698578 -0.926328 -1.219129 -1.593844 -2.070814 -2.674447 -3.433830 -4.383366 -5.563425 -7.021009 -8.810392 -10.993737 -13.641663 -16.833744 -20.658913 -25.215773 -30.612786 -36.968336 -44.410670 -53.077699 -63.116691 -74.683835 -87.943696 -103.068576 -120.237752 -139.636614 -161.455662 -185.889351 -213.134731 -243.389858 -276.851909 -313.714986 -354.167607 -398.390038 -446.551945 -498.811809 -555.322012 -616.249860 -681.841009 -752.592657 -829.707803 -916.271634 -1020.330564 -1163.740965 -1310.999591 -1455.227927 -1683.146518 -2110.392120 -2247.593733 -552.147674 139.756110 -978.199377 -1357.249357 482.219349 1037.607106 6.948856 -957.427571 -1480.352284 412.316994 1274.729902 -145.337850 -1582.465188 -801.232023 1509.839285 384.939366 -1580.812627 -392.296748 2057.470622 1115.498770 -203.146679 -1568.195627 -902.520457 1843.128148 1431.889871 142.242808 -1254.525136 -1218.905720 1901.579929 2431.170460 1566.193819 742.057040 54.255036 1083.747404 2577.270455 2208.524194 3439.575755 5275.380657 5811.100395 6636.735250 7256.837119 8447.871899 10700.615263 11217.906213 10812.445090 10626.591332 11901.869119 11770.422587 11753.269082 11753.269082 11753.269082 -0.023561 -0.023561 -0.023561 -0.024294 -0.032760 -0.055248 -0.019967 -0.019967 -0.019967 -0.020436 -0.025803 -0.037691 -0.014882 -0.014882 -0.014882 -0.015087 -0.017264 -0.020953 -0.010798 -0.010798 -0.010798 -0.010874 -0.011633 -0.012874 -0.007702 -0.007702 -0.007702 -0.007725 -0.007951 -0.008339 -0.005429 -0.005429 -0.005429 -0.005434 -0.005474 -0.005568 -0.003794 -0.003794 -0.003794 -0.003793 -0.003776 -0.003775 -0.002632 -0.002632 -0.002632 -0.002629 -0.002600 -0.002575 -0.001814 -0.001814 -0.001814 -0.001812 -0.001785 -0.001757 -0.001243 -0.001243 -0.001243 -0.001241 -0.001220 -0.001197 -0.000847 -0.000847 -0.000847 -0.000845 -0.000829 -0.000812 -0.000573 -0.000573 -0.000573 -0.000572 -0.000561 -0.000549 -0.000386 -0.000386 -0.000386 -0.000385 -0.000377 -0.000369 -0.000259 -0.000259 -0.000259 -0.000258 -0.000253 -0.000246 -0.000172 -0.000172 -0.000172 -0.000172 -0.000168 -0.000164 -0.000114 -0.000114 -0.000114 -0.000114 -0.000111 -0.000108 -0.000075 -0.000075 -0.000075 -0.000075 -0.000073 -0.000071 -0.000049 -0.000049 -0.000049 -0.000049 -0.000048 -0.000047 -0.000032 -0.000032 -0.000032 -0.000032 -0.000031 -0.000030 -0.000021 -0.000021 -0.000021 -0.000021 -0.000020 -0.000020 -0.000013 -0.000013 -0.000013 -0.000013 -0.000013 -0.000013 -0.000009 -0.000009 -0.000009 -0.000009 -0.000008 -0.000008 -0.000005 -0.000005 -0.000005 -0.000005 -0.000005 -0.000005 -0.000003 -0.000003 -0.000003 -0.000003 -0.000003 -0.000003 -0.000002 -0.000002 -0.000002 -0.000002 -0.000002 -0.000002 -0.000001 -0.000001 -0.000001 -0.000001 -0.000001 -0.000001 -0.000001 -0.000001 -0.000001 -0.000001 -0.000001 -0.000001 -0.000001 -0.000001 -0.000001 -0.000001 -0.000001 -0.000000 -0.000000 -0.000000 -0.000000 -0.000000 -0.000000 -0.000000 -0.000000 -0.000000 -0.000000 -0.000000 -0.000000 -0.000000 -0.000000 -0.000000 -0.000000 -0.000000 -0.000000 -0.000000 -0.000000 -0.000000 -0.000000 -0.000000 -0.000000 -0.000000 -0.000000 -0.000000 -0.000000 -0.000000 -0.000000 -0.000000 -0.000000 -0.000000 -0.000000 -0.000000 -0.000000 -0.000000 -0.000000 -0.000000 -0.000000 -0.000000 -0.000000 -0.000000 -0.000000 -0.000000 -0.000000 -0.000000 -0.000000 -0.000000 -0.000000 -0.000000 -0.000000 -0.000000 -0.000000 -0.000000 -0.000000 -0.000000 -0.000000 -0.000000 -0.000000 -0.000000 -0.000000 -0.000000 -0.000000 -0.000000 -0.000000 -0.000000 -0.000000 -0.000000 -0.000000 -0.000000 -0.000000 -0.000000 -0.000000 -0.000000 -0.000000 -0.000000 -0.000000 -0.000000 -0.000000 -0.000000 -0.000000 -0.000000 -0.000000 -0.000000 -0.000000 -0.000000 -0.000000 -0.000000 -0.000000 -0.000000 -0.000000 -0.000000 -0.000000 -0.000000 -0.000000 -0.000000 -0.000000 -0.000000 -0.000000 -0.000000 -0.000000 -0.000000 -0.000000 -0.000000 -0.000000 -0.000000 -0.000000 -0.000000 -0.000000 -0.000000 -0.000000 -0.000000 -0.000000 -0.000000 -0.000000 -0.000000 -0.000000 -0.000000 -0.000000 -0.000000 -0.000000 -0.000000 -0.000000 -0.000000 -0.000000 -0.000000 -0.000000 -0.000000 -0.000000 -0.000000 -0.000000 -0.000000 -0.000000 -0.000000 -0.000000 -0.000000 -0.000000 -0.000000 -0.000000 -0.000000 -0.000000 -0.000000 -0.000000 -0.000000 -0.000000 -0.000000 -0.000000 -0.000000 -0.000000 -0.000000 -0.000000 -0.000000 -0.000000 -0.000000 -0.000000 -0.000000 -0.000000 -0.000000 -0.000000 -0.000000 -0.000000 -0.000000 -0.000000 -0.000000 -0.000000 -0.000000 -0.000000 -0.000000 -0.000000 -0.000000 -0.000000 -0.000000 -0.000000 -0.000000 -0.000000 -0.000000 -0.000000 -0.000000 -0.000000 -0.000000 -0.000000 -0.000000 -0.000000 -0.000000 -0.000000 -0.000000 -0.000000 -0.000000 -0.000000 -0.000000 -0.000000 -0.000000 -0.000000 -0.000000 -0.000000 -0.000000 -0.000000 -0.000000 -0.000000 -0.000000 -0.000000 -0.000000 -0.000000 -0.000000 -0.000000 -0.000000 -0.000000 -0.000000 -0.000000 -0.000000 -0.000000 -0.000000 -0.000000 -0.000000 -0.000000 -0.000000 -0.000000 -0.000000 -0.000000 -0.000000 -0.000000 -0.000000 -0.000000 -0.000000 -0.000000 -0.000000 -0.000000 -0.000000 -0.000000 -0.000000 -0.000000 -0.000000 -0.000000 -0.000000 -0.000000 -0.000000 -0.000000 -0.000000 -0.000000 -0.000000 -0.000000 -0.000000 -0.000000 -0.000000 -0.000000 -0.000000 -0.000000 -0.000000 -0.000000 -0.000000 -0.000000 -0.000000 -0.000000 -0.000000 -0.000000 -0.000000 -0.000000 -0.000000 -0.000000 -0.000000 -0.000000 -0.000000 -0.000000 -0.000000 -0.000000 -0.000000 -0.000000 -0.000000 -0.000000 -0.000000 -0.000000 -0.000000 -0.000000 -0.000000 -0.000000 -0.000000 -0.000000 -0.000000 -0.000000 -0.000000 -0.000000 -0.000000 -0.000000 -0.000000 -0.000000 -0.000000 -0.000000 -0.000000 -0.000000 -0.000000 -0.000000 -0.000000 -0.000000 -0.000000 -0.000000 -0.000000 -0.000000 -0.000000 -0.000000 -0.000000 -0.000000 -0.000000 -0.000000 -0.000000 -0.000000 -0.000000 -0.000000 -0.000000 -0.000000 -0.000000 -0.000000 -0.000000 -0.000000 -0.000000 -0.000000 -0.000000 -0.000000 -0.000000 -0.000000 -0.000000 -0.000000 -0.000000 -0.000000 -0.000000 -0.000000 -0.000000 -0.000000 -0.000000 -0.000000 -0.000000 -0.000000 -0.000000 -0.000000 -0.000000 -0.000000 -0.000000 -0.000000 -0.000000 -0.000000 -0.000000 -0.000000 -0.000000 -0.000000 -0.000000 -0.000000 -0.000000 -0.000000 -0.000000 -0.000000 -0.000000 -0.000000 -0.000000 -0.000000 -0.000000 -0.000000 -0.000000 -0.000000 -0.000000 -0.000000 -0.000000 -0.000000 -0.000000 -0.000000 -0.000000 -0.000000 -0.000000 -0.000000 -0.000000 -0.000000 -0.000000 -0.000000 -0.000000 -0.000000 -0.000000 -0.000000 -0.000000 -0.000000 -0.000000 -0.000000 -0.000000 -0.000000 -0.000000 -0.000000 -0.000000 -0.000000 -0.000000 -0.000000 -0.000000 -0.000000 -0.000000 -0.000000 -0.000000 -0.000000 -0.000000 -0.000000 -0.000000 -0.000000 -0.000000 -0.000000 -0.000000 -0.000000 -0.000000 -0.000000 -0.000000 -0.000000 -0.000000 -0.000000 -0.000000 -0.000000 -0.000000 -0.000000 -0.000000 -0.000000 -0.000000 -0.000000 -0.000000 -0.000000 -0.000000 -0.000000 -0.000000 -0.000000 -0.000000 -0.000000 -0.000000 -0.000000 -0.000000 -0.000000 -0.000000 -0.000000 -0.000000 -0.000000 -0.000000 -0.000000 -0.000000 -0.000000 -0.000000 -0.000000 -0.000000 -0.000000 -0.000000 -0.000000 -0.000000 -0.000000 -0.000000 -0.000000 -0.000000 -0.000000 -0.000000 -0.000000 -0.000000 -0.000000 -0.000000 -0.000000 -0.000000 -0.000000 -0.000000 -0.000000 -0.000000 -0.000000 -0.000000 -0.000000 -0.000000 -0.000000 -0.000000 -0.000000 -0.000000 -0.000000 -0.000000 -0.000000 -0.000000 -0.000000 -0.000000 -0.000000 -0.000000 -0.000000 -0.000000 -0.000000 -0.000000 -0.000000 -0.000000 -0.000000 -0.000000 -0.000000 -0.000000 -0.000000 -0.000000 -0.000000 -0.000000 -0.000000 -0.000000 -0.000000 -0.000000 -0.000000 -0.000000 -0.000000 -0.000000 -0.000000 -0.000000 -0.000000 -0.000000 -0.000000 -0.000000 -0.000000 -0.000000 -0.000000 -0.000000 -0.000000 -0.000000 -0.000000 -0.000000 -0.000000 -0.000000 -0.000000 -0.000000 -0.000000 -0.000000 -0.000000 -0.000000 -0.000000 -0.000000 -0.000000 -0.000000 -0.000000 -0.000000 -0.000000 -0.000000 -0.000000 -0.000000 -0.000000 -0.000000 -0.000000 -0.000000 -0.000000 -0.000000 -0.000000 -0.000000 -0.000000 -0.000000 -0.000000 -0.000000 -0.000000 -0.000000 -0.000000 -0.000000 -0.000000 -0.000000 -0.000000 -0.000000 -0.000000 -0.000000 -0.000000 -0.000000 -0.000000 -0.000000 -0.000000 -0.000000 -0.000000 -0.000000 -0.000000 -0.000000 -0.000000 -0.000000 -0.000000 -0.000000 -0.000000 -0.000000 -0.000000 -0.000000 -0.000000 -0.000000 -0.000000 -0.000000 -0.000000 -0.000000 -0.000000 -0.000000 -0.000000 -0.000000 -0.000000 -0.000000 -0.000000 -0.000000 -0.000000 -0.000000 -0.000000 -0.000000 -0.000000 -0.000000 -0.000000 -0.000000 -0.000000 -0.000000 -0.000000 -0.000000 -0.000000 -0.000000 -0.000000 -0.000000 -0.000000 -0.000000 -0.000000 -0.000000 -0.000000 -0.000000 -0.000000 -0.000000 -0.000000 -0.000000 -0.000000 -0.000000 -0.000000 -0.000000 -0.000000 -0.000000 -0.000000 -0.000000 -0.000000 -0.000000 -0.000000 -0.000000 -0.000000 -0.000000 -0.000000 -0.000000 -0.000000 -0.000000 -0.000000 -0.000000 -0.000000 -0.000000 -0.000000 -0.000000 -0.000000 -0.000000 -0.000000 -0.000000 -0.000000 -0.000000 -0.000000 -0.000000 -0.000000 -0.000000 -0.000000 -0.000000 -0.000000 -0.000000 -0.000000 -0.000000 -0.000000 -0.000000 -0.000000 -0.000000 -0.000000 -0.000000 -0.000000 -0.000000 -0.000000 -0.000000 -0.000000 -0.000000 -0.000000 -0.000000 -0.000000 -0.000000 -0.000000 -0.000000 -0.000000 -0.000000 -0.000000 -0.000000 -0.000000 -0.000000 -0.000000 -0.000000 -0.000000 -0.000000 -0.000000 -0.000000 -0.000000 -0.000000 -0.000000 -0.000000 -0.000000 -0.000000 -0.000000 -0.000000 -0.000000 -0.000000 -0.000000 -0.000000 -0.000000 -0.000000 -0.000000 -0.000000 -0.000000 -0.000000 -0.000000 -0.000000 -0.000000 -0.000000 -0.000000 -0.000000 -0.000000 -0.000000 -0.000000 -0.000000 -0.000000 -0.000000 -0.000000 -0.000000 -0.000000 -0.000000 -0.000000 -0.000000 -0.000000 -0.000000 -0.000000 -0.000000 -0.000000 -0.000000 -0.000000 -0.000000 -0.000000 -0.000000 -0.000000 -0.000000 -0.000000 -0.000000 -0.000000 -0.000000 -0.000000 -0.000000 -0.000000 -0.000000 -0.000000 -0.000000 -0.000000 -0.000000 -0.000000 -0.000000 -0.000000 -0.000000 -0.000000 -0.000000 -0.000000 -0.000000 -0.000000 -0.000000 -0.000000 -0.000000 -0.000000 -0.000000 -0.000000 -0.000000 -0.000000 -0.000000 -0.000000 -0.000000 -0.000000 -0.000000 -0.000000 -0.000000 -0.000000 -0.000000 -0.000000 -0.000000 -0.000000 -0.000000 -0.000000 -0.000000 -0.000000 -0.000000 -0.000000 -0.000000 -0.000000 -0.000000 -0.000000 -0.000000 -0.000000 -0.000000 -0.000000 -0.000000 -0.000000 -0.000000 -0.000000 -0.000000 -0.000000 -0.000000 -0.000000 -0.000000 -0.000000 -0.000000 -0.000000 -0.000000 -0.000000 -0.000000 0.000000 -0.000000 -0.000000 -0.000000 -0.000000 -0.000000 -0.000000 -0.000000 -0.000000 -0.000000 -0.000000 -0.000000 -0.000000 -0.000000 -0.000000 -0.000000 -0.000000 -0.000000 -0.000000 -0.000000 -0.000000 -0.000000 -0.000000 -0.000000 -0.000000 -0.000000 -0.000000 -0.000000 -0.000000 -0.000000 -0.000000 -0.000000 -0.000000 -0.000000 -0.000000 -0.000000 -0.000000 -0.000000 -0.000000 -0.000000 -0.000000 -0.000000 -0.000000 -0.000000 -0.000000 -0.000000 -0.000000 -0.000000 -0.000000 -0.000000 -0.000000 -0.000000 -0.000000 -0.000000 -0.000000 -0.000000 -0.000000 -0.000000 -0.000000 -0.000000 -0.000000 -0.000000 -0.000000 -0.000000 -0.000000 -0.000000 -0.000000 -0.000000 -0.000000 -0.000000 -0.000000 -0.000000 -0.000000 -0.000000 -0.000000 -0.000000 -0.000000 -0.000000 -0.000000 -0.000000 -0.000000 -0.000000 -0.000000 -0.000000 -0.000000 -0.000000 -0.000000 -0.000000 -0.000000 -0.000000 -0.000000 -0.000000 -0.000000 -0.000000 -0.000000 -0.000000 -0.000000 -0.000000 -0.000000 -0.000000 -0.000000 -0.000000 -0.000000 -0.000000 -0.000000 -0.000000 -0.000000 -0.000000 -0.000000 -0.000000 -0.000000 -0.000000 -0.000000 -0.000000 -0.000000 -0.000000 -0.000000 -0.000000 -0.000000 -0.000000 -0.000000 -0.000000 -0.000000 -0.000000 -0.000000 -0.000000 -0.000000 -0.000000 -0.000000 -0.000000 -0.000000 -0.000000 -0.000000 -0.000000 -0.000000 -0.000000 -0.000000 -0.000000 -0.000000 -0.000000 -0.000000 -0.000000 -0.000000 -0.000000 -0.000000 -0.000000 -0.000000 -0.000000 -0.000000 -0.000000 -0.000000 -0.000000 -0.000000 -0.000000 -0.000000 -0.000000 -0.000000 -0.000000 -0.000000 -0.000000 -0.000000 -0.000000 -0.000000 -0.000000 -0.000000 -0.000000 -0.000000 -0.000000 -0.000000 -0.000000 -0.000000 -0.000000 -0.000000 -0.000000 -0.000000 -0.000000 -0.000000 -0.000000 -0.000000 -0.000000 -0.000000 -0.000000 -0.000000 -0.000000 -0.000000 -0.000000 -0.000000 -0.000000 -0.000000 -0.000000 -0.000000 -0.000000 -0.000000 -0.000000 -0.000000 -0.000000 -0.000000 -0.000000 -0.000000 -0.000000 -0.000000 -0.000000 -0.000000 -0.000000 -0.000000 -0.000000 -0.000000 -0.000000 -0.000000 -0.000000 -0.000000 -0.000000 -0.000000 -0.000000 -0.000000 -0.000000 -0.000000 -0.000000 -0.000000 -0.000000 -0.000000 -0.000000 -0.000000 -0.000000 -0.000000 -0.000000 -0.000000 -0.000000 -0.000000 -0.000000 -0.000000 -0.000000 -0.000000 -0.000000 -0.000000 -0.000000 -0.000000 -0.000000 -0.000000 -0.000000 -0.000000 -0.000000 -0.000000 -0.000001 -0.000001 -0.000002 -0.000003 -0.000004 -0.000006 -0.000009 -0.000013 -0.000019 -0.000029 -0.000042 -0.000060 -0.000087 -0.000124 -0.000175 -0.000244 -0.000339 -0.000464 -0.000629 -0.000842 -0.001112 -0.001447 -0.001849 -0.002314 -0.002820 -0.003324 -0.003739 -0.003918 -0.003619 -0.002461 0.000135 0.005035 0.013504 0.027359 0.049173 0.082537 0.132403 0.205520 0.310983 0.460923 0.671358 0.963230 1.363660 1.907447 2.638831 3.613541 4.901150 6.587732 8.778817 11.602631 15.213572 19.795879 25.567412 32.783461 41.740457 52.779466 66.289325 82.709308 102.531279 126.301479 154.622413 188.155819 227.628261 273.841253 327.687312 390.170887 462.427467 545.724168 641.411002 750.777083 874.759899 1013.483562 1165.730984 1328.882299 1501.153504 1691.640273 1951.657132 2469.196782 3538.180952 4705.146711 4166.176787 3819.282275 4731.629900 5271.051733 7486.042789 7468.450423 9279.590245 10995.883254 12680.507675 12903.147789 14360.597827 15017.757362 14798.190088 16398.138115 16340.155368 15186.983604 17287.061799 15899.051898 14433.107499 16233.463415 14898.216001 14336.963319 14336.963319 14336.963319 -0.000000 -0.000000 -0.000000 -0.000000 -0.000000 -0.000000 -0.000000 -0.000001 -0.000001 -0.000002 -0.000003 -0.000004 -0.000006 -0.000009 -0.000013 -0.000020 -0.000029 -0.000043 -0.000062 -0.000088 -0.000126 -0.000177 -0.000248 -0.000343 -0.000470 -0.000636 -0.000851 -0.001122 -0.001457 -0.001859 -0.002320 -0.002821 -0.003312 -0.003706 -0.003851 -0.003497 -0.002256 0.000466 0.005549 0.014282 0.028510 0.050846 0.084931 0.135781 0.210224 0.317457 0.469738 0.683234 0.979073 1.384596 1.934863 2.674415 3.659327 4.959564 6.661637 8.871553 11.718050 15.356066 19.970397 25.779463 33.039096 42.046236 53.142400 66.716801 83.209001 103.111081 126.969487 155.387052 189.026178 228.614714 274.956323 328.946544 391.593276 464.034990 547.541048 643.467028 753.128311 877.557856 1017.150226 1171.308840 1338.513323 1517.968837 1715.639118 1959.501798 2316.357869 2844.693869 3441.477327 3800.540993 4098.070577 4763.519993 5361.891587 6384.798048 6845.654718 7948.112313 9184.024691 10220.597383 10977.787340 12060.884529 12282.496495 12333.528903 13484.931732 13718.485344 14200.415999 16815.597717 16026.274451 14317.940696 14840.180684 13973.788285 13747.614916 13747.614916 13747.614916 -0.000000 -0.000000 -0.000000 -0.000000 -0.000000 -0.000000 -0.000000 -0.000001 -0.000001 -0.000002 -0.000003 -0.000004 -0.000006 -0.000009 -0.000014 -0.000020 -0.000030 -0.000044 -0.000063 -0.000090 -0.000128 -0.000181 -0.000252 -0.000348 -0.000476 -0.000644 -0.000860 -0.001133 -0.001469 -0.001869 -0.002328 -0.002820 -0.003298 -0.003667 -0.003771 -0.003353 -0.002014 0.000853 0.006150 0.015188 0.029850 0.052792 0.087711 0.139698 0.215675 0.324955 0.479936 0.696965 0.997379 1.408774 1.966505 2.715460 3.712112 5.026875 6.746756 8.978310 11.850860 15.519962 20.171047 26.023171 33.332787 42.397413 53.559079 67.207428 83.782354 103.776196 127.735657 156.263982 190.024389 229.746259 276.235750 330.391810 393.226006 465.879456 549.622218 645.811612 755.781599 880.646201 1021.043536 1176.946056 1347.837683 1533.798957 1738.183118 1971.773939 2254.316667 2603.119507 3008.263592 3438.988714 3903.099103 4425.417211 5004.503873 5639.537201 6307.988006 7051.224175 7820.235884 8532.921449 9168.959404 9765.900142 10321.316185 10891.444232 11511.391414 12090.146350 12773.880759 13674.305491 13868.132128 13549.350846 13486.037978 13424.076525 13429.248689 13429.248689 13429.248689 -0.000000 -0.000000 -0.000000 -0.000000 -0.000000 -0.000000 -0.000000 -0.000001 -0.000001 -0.000002 -0.000003 -0.000004 -0.000006 -0.000009 -0.000014 -0.000020 -0.000030 -0.000044 -0.000063 -0.000090 -0.000129 -0.000181 -0.000253 -0.000349 -0.000478 -0.000646 -0.000862 -0.001135 -0.001471 -0.001871 -0.002329 -0.002820 -0.003295 -0.003660 -0.003756 -0.003326 -0.001970 0.000924 0.006258 0.015353 0.030093 0.053144 0.088214 0.140406 0.216660 0.326308 0.481776 0.699440 1.000678 1.413130 1.972203 2.722850 3.721613 5.038986 6.762068 8.997509 11.874738 15.549422 20.207104 26.066956 33.385541 42.460480 53.633896 67.295507 83.885267 103.895564 127.873148 156.421342 190.203516 229.949332 276.465397 330.651262 393.519121 466.210484 549.995333 646.230827 756.253095 881.187891 1021.710551 1177.882078 1349.343241 1536.311961 1741.768830 1974.280249 2248.313337 2577.019351 2960.195509 3386.558229 3854.450545 4371.380782 4938.924059 5556.468604 6218.183232 6927.865422 7649.407741 8330.855631 8955.640285 9544.540436 10115.924829 10696.411192 11287.123056 11861.804926 12476.222084 13076.989884 13381.227773 13387.486665 13359.695381 13378.715744 13386.480943 13386.480943 13386.480943 -0.000000 -0.000000 -0.000000 -0.000000 -0.000000 -0.000000 -0.000000 -0.000001 -0.000001 -0.000002 -0.000003 -0.000004 -0.000006 -0.000009 -0.000014 -0.000020 -0.000030 -0.000044 -0.000063 -0.000090 -0.000129 -0.000181 -0.000253 -0.000349 -0.000478 -0.000646 -0.000862 -0.001135 -0.001471 -0.001871 -0.002329 -0.002820 -0.003295 -0.003660 -0.003756 -0.003326 -0.001970 0.000924 0.006258 0.015353 0.030093 0.053144 0.088214 0.140406 0.216660 0.326308 0.481776 0.699440 1.000678 1.413130 1.972203 2.722850 3.721613 5.038986 6.762068 8.997509 11.874738 15.549422 20.207104 26.066956 33.385541 42.460480 53.633896 67.295507 83.885267 103.895564 127.873148 156.421342 190.203516 229.949332 276.465397 330.651262 393.519121 466.210484 549.995333 646.230827 756.253095 881.187891 1021.710551 1177.882078 1349.343241 1536.311961 1741.768830 1974.280249 2248.313337 2577.019351 2960.195509 3386.558229 3854.450545 4371.380782 4938.924059 5556.468604 6218.183232 6927.865422 7649.407741 8330.855631 8955.640285 9544.540436 10115.924829 10696.411192 11287.123056 11861.804926 12476.222084 13076.989884 13381.227773 13387.486665 13359.695381 13378.715744 13386.480943 13386.480943 13386.480943 -0.000000 -0.000000 -0.000000 -0.000000 -0.000000 -0.000000 -0.000000 -0.000001 -0.000001 -0.000002 -0.000003 -0.000004 -0.000006 -0.000009 -0.000014 -0.000020 -0.000030 -0.000044 -0.000063 -0.000090 -0.000129 -0.000181 -0.000253 -0.000349 -0.000478 -0.000646 -0.000862 -0.001135 -0.001471 -0.001871 -0.002329 -0.002820 -0.003295 -0.003660 -0.003756 -0.003326 -0.001970 0.000924 0.006258 0.015353 0.030093 0.053144 0.088214 0.140406 0.216660 0.326308 0.481776 0.699440 1.000678 1.413130 1.972203 2.722850 3.721613 5.038986 6.762068 8.997509 11.874738 15.549422 20.207104 26.066956 33.385541 42.460480 53.633896 67.295507 83.885267 103.895564 127.873148 156.421342 190.203516 229.949332 276.465397 330.651262 393.519121 466.210484 549.995333 646.230827 756.253095 881.187891 1021.710551 1177.882078 1349.343241 1536.311961 1741.768830 1974.280249 2248.313337 2577.019351 2960.195509 3386.558229 3854.450545 4371.380782 4938.924059 5556.468604 6218.183232 6927.865422 7649.407741 8330.855631 8955.640285 9544.540436 10115.924829 10696.411192 11287.123056 11861.804926 12476.222084 13076.989884 13381.227773 13387.486665 13359.695381 13378.715744 13386.480943 13386.480943 13386.480943 -1347.995753 -1504.524153 -1762.104303 -2281.357802 -2195.437853 -348.845874 -41.657106 -1228.514241 -1157.728152 838.543447 888.712652 -181.448391 -1222.983556 -1355.402163 889.189591 1119.945026 -505.752649 -1912.574248 -288.951498 1739.427869 -111.859635 -1990.296861 266.504733 2347.135868 869.835800 -546.189260 -2028.459364 -386.120158 2305.816286 1232.699451 -153.947825 -1798.714317 -886.072962 2587.238467 2380.302415 1396.390729 236.303512 -538.940966 1340.068547 2578.641510 2014.216196 3585.605998 5599.075909 5647.065400 6962.365323 7202.069127 9190.659303 11528.946866 11681.972990 10697.089222 10787.592271 12232.762949 11752.913303 11727.405781 11727.405781 11727.405781 -13.007326 -99.130024 -249.708287 9367.594834 6140.692794 8468.595935 8211.718639 9543.334744 9846.622259 7683.374879 7300.252946 12122.730665 9869.178811 11064.401854 7545.700695 10321.484152 8730.884331 7866.871040 10148.554575 6713.443350 7653.186893 8308.098793 7931.090520 7335.900102 9684.600173 9900.195352 11144.209806 7776.276060 8907.586826 8103.705372 11495.402432 7424.820125 9190.611468 10818.834530 9853.384075 8476.025692 10265.057353 8697.625636 7415.256339 10603.984147 8868.999045 7239.055406 8993.406226 10375.992827 9739.849188 8501.452137 7794.497378 10828.973994 8019.834618 8771.112642 10810.561799 14178.100734 11930.832829 11581.683084 11581.683084 11581.683084 122.093640 117.629074 3134.125197 1828.924973 9635.285379 9619.106770 8134.784228 6605.638556 9948.059142 7880.265558 11592.728989 10904.331873 12097.139136 9750.120187 9344.325036 9310.540235 3631.150991 8627.343961 9110.009655 7635.956001 6778.589656 6510.714177 8486.686421 8563.620412 7055.985967 9367.760937 7409.154483 7251.706747 9637.409486 8301.157604 5440.348413 8734.790880 9215.814799 7509.456757 8739.417034 8308.053612 8339.699337 10129.334473 8035.484252 8769.223948 7534.009540 7387.951100 6428.463632 8912.366762 6323.806399 8829.824477 7144.817197 9954.049634 8358.792008 11283.705534 10432.920337 11720.875393 11420.899351 11330.581265 11330.581265 11330.581265 -206.387674 -600.058252 7032.915125 5191.055223 10135.565272 4462.265342 10556.777903 7112.245283 8438.529374 11236.901655 8885.972589 11141.791745 8254.492435 4021.986008 12071.212645 8497.312786 12569.081675 7065.374392 5743.415544 8111.821115 9751.022706 5014.004876 6825.005274 8468.207913 9037.760811 4499.957507 9265.184058 5111.837595 9615.859835 8751.440571 9678.388795 9254.280117 9093.481661 7096.629670 8341.382979 8817.868962 7713.978029 8181.712969 8095.259719 8184.477295 6327.731121 7049.204516 6355.683782 9172.699672 7629.430369 11474.958950 11582.007521 8501.239049 9147.076906 10379.262452 11274.155047 7102.380354 10587.779543 11118.071284 11118.071284 11118.071284 50.696065 870.255093 1280.398376 3334.445060 1921.176920 8418.475724 7784.981177 6920.378905 4968.141420 8379.547675 2886.679106 5893.521179 5823.750188 12204.289169 4883.585394 14937.420632 3269.650504 5640.275405 6745.573405 4168.522588 2265.910358 3637.139002 7893.002610 5638.140363 10053.054982 6163.