<VTKFile type="PolyData">
<PolyData>
<Piece NumberOfPoints="8632" NumberOfVerts="8632" NumberOfLines="0" NumberOfStrips="0" NumberOfPolys="0">
<PointData>
<DataArray type="Float64" Name="Pressure" format="ascii">
 -7.749210 -7.749210 -7.749210 -7.828094 -8.712241 -10.991299 -13.567871 -16.493630 -19.748019 -23.328235 -27.255021 -31.562650 -36.292517 -41.490192 -47.204217 -53.485612 -60.387668 -67.965815 -76.277519 -85.382146 -95.340819 -106.216218 -118.072352 -130.974289 -144.987837 -160.179179 -176.614464 -194.359352 -213.478506 -234.035049 -256.089972 -279.701510 -304.924486 -331.809643 -360.402958 -390.744977 -422.870164 -456.806296 -492.573894 -530.185724 -569.646321 -610.951532 -654.087988 -699.032430 -745.750708 -794.196266 -844.307817 -896.005810 -949.187058 -1003.716347 -1059.412356 -1116.021542 -1173.164705 -1230.225784 -1286.141967 -1339.336885 -1388.256209 -1431.550035 -1466.906229 -1489.596521 -1490.798568 -1453.469403 -1346.638634 -1163.223761 -974.607705 -835.612768 -708.412310 -542.741130 -371.323110 -270.143474 -234.073547 -202.932241 -117.603926 25.213428 145.575065 198.438210 216.460425 251.124822 353.347013 570.660680 909.898705 1311.495188 1722.296181 2134.409415 2553.691941 2980.816248 3415.698396 3861.691025 4320.348929 4795.451783 5294.245681 5822.472575 6379.948501 6958.998243 7552.968507 8155.675801 8749.476550 9317.158722 9862.840572 10399.143122 10930.357976 11442.871347 11895.933809 12259.134630 12545.770259 12769.672278 12922.104888 12992.194203 13002.729738 13002.729738 13002.729738 -7.749210 -7.749210 -7.749210 -7.828094 -8.712241 -10.991299 -13.567871 -16.493630 -19.748019 -23.328235 -27.255021 -31.562650 -36.292517 -41.490192 -47.204217 -53.485612 -60.387668 -67.965815 -76.277519 -85.382146 -95.340819 -106.216218 -118.072352 -130.974289 -144.987837 -160.179179 -176.614464 -194.359352 -213.478506 -234.035049 -256.089972 -279.701510 -304.924486 -331.809643 -360.402958 -390.744977 -422.870164 -456.806296 -492.573894 -530.185724 -569.646321 -610.951532 -654.087988 -699.032430 -745.750708 -794.196266 -844.307817 -896.005810 -949.187058 -1003.716347 -1059.412356 -1116.021542 -1173.164705 -1230.225784 -1286.141967 -1339.336885 -1388.256209 -1431.550035 -1466.906229 -1489.596521 -1490.798568 -1453.469403 -1346.638634 -1163.223761 -974.607705 -835.612768 -708.412310 -542.741130 -371.323110 -270.143474 -234.073547 -202.932241 -117.603926 25.213428 145.575065 198.438210 216.460425 251.124822 353.347013 570.660680 909.898705 1311.495188 1722.296181 2134.409415 2553.691941 2980.816248 3415.698396 3861.691025 4320.348929 4795.451783 5294.245681 5822.472575 6379.948501 6958.998243 7552.968507 8155.675801 8749.476550 9317.158722 9862.840572 10399.143122 10930.357976 11442.871347 11895.933809 12259.134630 12545.770259 12769.672278 12922.104888 12992.194203 13002.729738 13002.729738 13002.729738 -7.749210 -7.749210 -7.749210 -7.828094 -8.712241 -10.991299 -13.567871 -16.493630 -19.748019 -23.328235 -27.255021 -31.562650 -36.292517 -41.490192 -47.204217 -53.485612 -60.387668 -67.965815 -76.277519 -85.382146 -95.340819 -106.216218 -118.072352 -130.974289 -144.987837 -160.179179 -176.614464 -194.359352 -213.478506 -234.035049 -256.089972 -279.701510 -304.924486 -331.809643 -360.402958 -390.744977 -422.870164 -456.806296 -492.573894 -530.185724 -569.646321 -610.951532 -654.087988 -699.032430 -745.750708 -794.196266 -844.307817 -896.005810 -949.187058 -1003.716347 -1059.412356 -1116.021542 -1173.164705 -1230.225784 -1286.141967 -1339.336885 -1388.256209 -1431.550035 -1466.906229 -1489.596521 -1490.798568 -1453.469403 -1346.638634 -1163.223761 -974.607705 -835.612768 -708.412310 -542.741130 -371.323110 -270.143474 -234.073547 -202.932241 -117.603926 25.213428 145.575065 198.438210 216.460425 251.124822 353.347013 570.660680 909.898705 1311.495188 1722.296181 2134.409415 2553.691941 2980.816248 3415.698396 3861.691025 4320.348929 4795.451783 5294.245681 5822.472575 6379.948501 6958.998243 7552.968507 8155.675801 8749.476550 9317.158722 9862.840572 10399.143122 10930.357976 11442.871347 11895.933809 12259.134630 12545.770259 12769.672278 12922.104888 12992.194203 13002.729738 13002.729738 13002.729738 -7.716828 -7.716828 -7.716828 -7.794252 -8.672183 -10.936387 -13.519648 -16.464310 -19.732443 -23.318842 -27.247853 -31.555980 -36.285630 -41.482787 -47.196155 -53.476820 -60.378100 -67.955436 -76.266297 -85.370057 -95.327838 -106.202325 -118.057532 -130.958530 -144.971132 -160.161526 -176.595870 -194.339827 -213.458072 -234.013733 -256.067811 -279.678550 -304.900784 -331.785261 -360.377972 -390.719471 -422.844231 -456.780035 -492.547413 -530.159138 -569.619752 -610.925109 -654.061857 -699.006757 -745.725708 -794.172249 -844.285305 -895.985802 -949.171684 -1003.710465 -1059.427487 -1116.085376 -1173.342326 -1230.657077 -1286.993609 -1340.621564 -1389.862973 -1433.856422 -1470.834146 -1496.808972 -1504.053812 -1474.434486 -1366.302042 -1182.235299 -951.825947 -827.030113 -720.978153 -555.108052 -342.479646 -246.777874 -232.165447 -221.462487 -143.752945 37.044120 171.802035 214.274326 215.711983 233.552208 319.261299 534.663751 897.501628 1319.313619 1732.925411 2142.169870 2559.647865 2986.560189 3423.229494 3877.590197 4343.530956 4822.120954 5321.567419 5849.572598 6409.161779 6988.892633 7582.052109 8187.483940 8784.217002 9347.881793 9890.657932 10431.604131 10972.853481 11503.993140 11971.227217 12329.132755 12608.587083 12833.189137 12971.306065 13017.445741 13023.165051 13023.165051 13023.165051 -7.364489 -7.364489 -7.364489 -7.425831 -8.183901 -10.208474 -12.899510 -16.153072 -19.575699 -23.225827 -27.176705 -31.489536 -36.216890 -41.408806 -47.115587 -53.388953 -60.282471 -67.851692 -76.154139 -85.249219 -95.198087 -106.063461 -117.909394 -130.801000 -144.804142 -159.985066 -176.409991 -194.144653 -213.253800 -233.800644 -255.846273 -279.449023 -304.663820 -331.541512 -360.128183 -390.464477 -422.584957 -456.517484 -492.282663 -529.893333 -569.354109 -610.660931 -653.800577 -698.750044 -745.475685 -793.931985 -844.059918 -895.785077 -949.016391 -1003.647910 -1059.570046 -1116.705551 -1175.101691 -1235.073536 -1297.356040 -1356.614496 -1407.902184 -1458.879003 -1513.312153 -1575.068514 -1651.185115 -1732.735614 -1862.413306 -1501.658360 -710.222114 -741.718459 -1034.790277 -779.812125 58.003109 71.299311 -211.766205 -485.441814 -548.553304 216.788186 605.076027 399.312377 208.586289 29.524424 -113.471047 -23.528735 766.827299 1479.165263 1866.022991 2229.267670 2629.167126 3053.996570 3518.242643 4100.933452 4660.145223 5148.634200 5614.418846 6096.050594 6653.681850 7212.078026 7756.052373 8376.291744 9008.753932 9508.718852 10024.352971 10649.635008 11300.578042 12045.587213 12686.971159 12938.733665 13128.119682 13456.817047 13526.542798 13308.821710 13246.859673 13246.859673 13246.859673 -6.858833 -6.858833 -6.858833 -6.906912 -7.459745 -8.920038 -11.543744 -15.609003 -19.347267 -23.102477 -27.089242 -31.411487 -36.137798 -41.324368 -47.023902 -53.289061 -60.173792 -67.733802 -76.026686 -85.111898 -95.050630 -105.905639 -117.741022 -130.621944 -144.614324 -159.784473 -176.198681 -193.922764 -213.021556 -233.558363 -255.594373 -279.188025 -304.394354 -331.264318 -359.844106 -390.174471 -422.290072 -456.218863 -491.981531 -529.590995 -569.051950 -610.360438 -653.503399 -698.458129 -745.191585 -793.659553 -843.805920 -895.563046 -948.856038 -1003.618432 -1059.838488 -1117.685155 -1177.841240 -1242.412280 -1317.542242 -1381.663239 -1430.197814 -1488.024274 -1562.730992 -1666.676861 -1827.734404 -2097.847936 -2456.839733 -1456.039124 -48.514951 -598.308641 -1517.589158 -1006.069852 704.778027 540.407071 -186.537521 -868.355476 -1109.094281 501.503668 1268.023574 657.999495 203.764532 -221.631424 -822.228537 -1015.595108 746.235348 1905.009067 2052.161843 2337.064909 2709.045656 3189.525244 3455.778466 4635.892470 5098.271350 5395.483019 5678.135435 5877.765370 6514.379115 6946.710945 7267.922164 7858.669550 8650.497613 8981.226401 9453.235151 10547.385060 11234.590385 11931.226874 13099.719486 12887.443433 12473.669500 13747.022550 14386.883524 13690.832190 13547.663566 13547.663566 13547.663566 -6.786352 -6.786352 -6.786352 -6.832594 -7.359445 -8.715381 -6.276505 -6.276505 -6.276505 -6.306838 -6.651212 -7.402568 -5.473236 -5.473236 -5.473236 -5.486703 -5.630501 -5.874594 -4.733693 -4.733693 -4.733693 -4.738809 -4.789418 -4.873143 -4.074443 -4.074443 -4.074443 -4.075828 -4.089068 -4.113662 -3.495258 -3.495258 -3.495258 -3.495204 -3.494386 -3.497127 -2.990469 -2.990469 -2.990469 -2.989918 -2.984293 -2.979342 -2.552628 -2.552628 -2.552628 -2.551947 -2.545092 -2.537876 -2.174133 -2.174133 -2.174133 -2.173459 -2.166707 -2.159270 -1.847827 -1.847827 -1.847827 -1.847208 -1.841019 -1.834086 -1.567197 -1.567197 -1.567197 -1.566646 -1.561139 -1.554929 -1.326406 -1.326406 -1.326406 -1.325922 -1.321091 -1.315627 -1.120261 -1.120261 -1.120261 -1.119840 -1.115633 -1.110869 -0.944171 -0.944171 -0.944171 -0.943806 -0.940160 -0.936029 -0.794087 -0.794087 -0.794087 -0.793771 -0.790623 -0.787054 -0.666452 -0.666452 -0.666452 -0.666180 -0.663468 -0.660395 -0.558149 -0.558149 -0.558149 -0.557916 -0.555586 -0.552946 -0.466455 -0.466455 -0.466455 -0.466255 -0.464259 -0.461996 -0.388995 -0.388995 -0.388995 -0.388824 -0.387118 -0.385184 -0.323706 -0.323706 -0.323706 -0.323561 -0.322105 -0.320456 -0.268799 -0.268799 -0.268799 -0.268675 -0.267437 -0.266035 -0.222727 -0.222727 -0.222727 -0.222621 -0.221570 -0.220380 -0.184154 -0.184154 -0.184154 -0.184065 -0.183175 -0.182167 -0.151933 -0.151933 -0.151933 -0.151857 -0.151106 -0.150255 -0.125078 -0.125078 -0.125078 -0.125015 -0.124381 -0.123664 -0.102747 -0.102747 -0.102747 -0.102694 -0.102161 -0.101559 -0.084219 -0.084219 -0.084219 -0.084174 -0.083728 -0.083223 -0.068882 -0.068882 -0.068882 -0.068845 -0.068471 -0.068048 -0.056215 -0.056215 -0.056215 -0.056184 -0.055872 -0.055519 -0.045777 -0.045777 -0.045777 -0.045751 -0.045491 -0.045198 -0.037195 -0.037195 -0.037195 -0.037173 -0.036958 -0.036714 -0.030156 -0.030156 -0.030156 -0.030138 -0.029959 -0.029757 -0.024395 -0.024395 -0.024395 -0.024380 -0.024232 -0.024065 -0.019691 -0.019691 -0.019691 -0.019678 -0.019557 -0.019419 -0.015859 -0.015859 -0.015859 -0.015849 -0.015748 -0.015635 -0.012744 -0.012744 -0.012744 -0.012736 -0.012654 -0.012561 -0.010218 -0.010218 -0.010218 -0.010212 -0.010144 -0.010068 -0.008175 -0.008175 -0.008175 -0.008170 -0.008115 -0.008052 -0.006526 -0.006526 -0.006526 -0.006521 -0.006476 -0.006426 -0.005198 -0.005198 -0.005198 -0.005194 -0.005158 -0.005116 -0.004130 -0.004130 -0.004130 -0.004127 -0.004098 -0.004065 -0.003275 -0.003275 -0.003275 -0.003273 -0.003249 -0.003222 -0.002591 -0.002591 -0.002591 -0.002589 -0.002570 -0.002548 -0.002045 -0.002045 -0.002045 -0.002044 -0.002028 -0.002011 -0.001611 -0.001611 -0.001611 -0.001610 -0.001597 -0.001583 -0.001266 -0.001266 -0.001266 -0.001265 -0.001255 -0.001244 -0.000992 -0.000992 -0.000992 -0.000992 -0.000984 -0.000975 -0.000776 -0.000776 -0.000776 -0.000776 -0.000769 -0.000762 -0.000606 -0.000606 -0.000606 -0.000605 -0.000600 -0.000595 -0.000472 -0.000472 -0.000472 -0.000471 -0.000467 -0.000463 -0.000367 -0.000367 -0.000367 -0.000366 -0.000363 -0.000360 -0.000284 -0.000284 -0.000284 -0.000284 -0.000281 -0.000279 -0.000220 -0.000220 -0.000220 -0.000220 -0.000218 -0.000215 -0.000170 -0.000170 -0.000170 -0.000169 -0.000168 -0.000166 -0.000131 -0.000131 -0.000131 -0.000130 -0.000129 -0.000128 -0.000100 -0.000100 -0.000100 -0.000100 -0.000099 -0.000098 -0.000077 -0.000077 -0.000077 -0.000077 -0.000076 -0.000075 -0.000059 -0.000059 -0.000059 -0.000059 -0.000058 -0.000058 -0.000045 -0.000045 -0.000045 -0.000045 -0.000044 -0.000044 -0.000034 -0.000034 -0.000034 -0.000034 -0.000034 -0.000033 -0.000026 -0.000026 -0.000026 -0.000026 -0.000026 -0.000025 -0.000020 -0.000020 -0.000020 -0.000020 -0.000019 -0.000019 -0.000015 -0.000015 -0.000015 -0.000015 -0.000015 -0.000015 -0.000011 -0.000011 -0.000011 -0.000011 -0.000011 -0.000011 -0.000008 -0.000008 -0.000008 -0.000008 -0.000008 -0.000008 -0.000006 -0.000006 -0.000006 -0.000006 -0.000006 -0.000006 -0.000005 -0.000005 -0.000005 -0.000005 -0.000005 -0.000005 -0.000004 -0.000004 -0.000004 -0.000004 -0.000004 -0.000003 -0.000003 -0.000003 -0.000003 -0.000003 -0.000003 -0.000003 -0.000002 -0.000002 -0.000002 -0.000002 -0.000002 -0.000002 -0.000001 -0.000001 -0.000001 -0.000001 -0.000001 -0.000001 -0.000001 -0.000001 -0.000001 -0.000001 -0.000001 -0.000001 -0.000001 -0.000001 -0.000001 -0.000001 -0.000001 -0.000001 -0.000001 -0.000001 -0.000001 -0.000001 -0.000001 -0.000001 -0.000000 -0.000000 -0.000000 -0.000000 -0.000000 -0.000000 -0.000000 -0.000000 -0.000000 -0.000000 -0.000000 -0.000000 -0.000000 -0.000000 -0.000000 -0.000000 -0.000000 -0.000000 -0.000000 -0.000000 -0.000000 -0.000000 -0.000000 -0.000000 -0.000000 -0.000000 -0.000000 -0.000000 -0.000000 -0.000000 -0.000000 -0.000000 -0.000000 -0.000000 -0.000000 -0.000000 -0.000000 -0.000000 -0.000000 -0.000000 -0.000000 -0.000000 -0.000000 -0.000000 -0.000000 -0.000000 -0.000000 -0.000000 -0.000000 -0.000000 -0.000000 -0.000000 -0.000000 -0.000000 -0.000000 -0.000000 -0.000000 -0.000000 -0.000000 -0.000000 -0.000000 -0.000000 -0.000000 -0.000000 -0.000000 -0.000000 -0.000000 -0.000000 -0.000000 -0.000000 -0.000000 -0.000000 -0.000000 -0.000000 -0.000000 -0.000000 -0.000000 -0.000000 -0.000000 -0.000000 -0.000000 -0.000000 -0.000000 -0.000000 -0.000000 -0.000000 -0.000000 -0.000000 -0.000000 -0.000000 -0.000000 -0.000000 -0.000000 -0.000000 -0.000000 -0.000000 -0.000000 -0.000000 -0.000000 -0.000000 -0.000000 -0.000000 -0.000000 -0.000000 -0.000000 -0.000000 -0.000000 -0.000000 -0.000000 -0.000000 -0.000000 -0.000000 -0.000000 -0.000000 -0.000000 -0.000000 -0.000000 -0.000000 -0.000000 -0.000000 -0.000000 -0.000000 -0.000000 -0.000000 -0.000000 -0.000000 -0.000000 -0.000000 -0.000000 -0.000000 -0.000000 -0.000000 -0.000000 -0.000000 -0.000000 -0.000000 -0.000000 -0.000000 -0.000000 -0.000000 -0.000000 -0.000000 -0.000000 -0.000000 -0.000000 -0.000000 -0.000000 -0.000000 -0.000000 -0.000000 -0.000000 -0.000000 -0.000000 -0.000000 -0.000000 -0.000000 -0.000000 -0.000000 -0.000000 -0.000000 -0.000000 -0.000000 -0.000000 -0.000000 -0.000000 -0.000000 -0.000000 -0.000000 -0.000000 -0.000000 -0.000000 -0.000000 -0.000000 -0.000000 -0.000000 -0.000000 -0.000000 -0.000000 -0.000000 -0.000000 -0.000000 -0.000000 -0.000000 -0.000000 -0.000000 -0.000000 -0.000000 -0.000000 -0.000000 -0.000000 -0.000000 -0.000000 -0.000000 -0.000000 -0.000000 -0.000000 -0.000000 -0.000000 -0.000000 -0.000000 -0.000000 -0.000000 -0.000000 -0.000000 -0.000000 -0.000000 -0.000000 -0.000000 -0.000000 -0.000000 -0.000000 -0.000000 -0.000000 -0.000000 -0.000000 -0.000000 -0.000000 -0.000000 -0.000000 -0.000000 -0.000000 -0.000000 -0.000000 -0.000000 -0.000000 -0.000000 -0.000000 -0.000000 -0.000000 -0.000000 -0.000000 -0.000000 -0.000000 -0.000000 -0.000000 -0.000000 -0.000000 -0.000000 -0.000000 -0.000000 -0.000000 -0.000000 -0.000000 -0.000000 -0.000000 -0.000000 -0.000000 -0.000000 -0.000000 -0.000000 -0.000000 -0.000000 -0.000000 -0.000000 -0.000000 -0.000000 -0.000000 -0.000000 -0.000000 -0.000000 -0.000000 -0.000000 -0.000000 -0.000000 -0.000000 -0.000000 -0.000000 -0.000000 -0.000000 -0.000000 -0.000000 -0.000000 -0.000000 -0.000000 -0.000000 -0.000000 -0.000000 -0.000000 -0.000000 -0.000000 -0.000000 -0.000000 -0.000000 -0.000000 -0.000000 -0.000000 -0.000000 -0.000000 -0.000000 -0.000000 -0.000000 -0.000000 -0.000000 -0.000000 -0.000000 -0.000000 -0.000000 -0.000000 -0.000000 -0.000000 -0.000000 -0.000000 -0.000000 -0.000000 -0.000000 -0.000000 -0.000000 -0.000000 -0.000000 -0.000000 -0.000000 -0.000000 -0.000000 -0.000000 -0.000000 -0.000000 -0.000000 -0.000000 -0.000000 -0.000000 -0.000000 -0.000000 -0.000000 -0.000000 -0.000000 -0.000000 -0.000000 -0.000000 -0.000000 -0.000000 -0.000000 -0.000000 -0.000000 -0.000000 -0.000000 -0.000000 -0.000000 -0.000000 -0.000000 -0.000000 -0.000000 -0.000000 -0.000000 -0.000000 -0.000000 -0.000000 -0.000000 -0.000000 -0.000000 -0.000000 -0.000000 -0.000000 -0.000000 -0.000000 -0.000000 -0.000000 -0.000000 -0.000000 -0.000000 -0.000000 -0.000000 -0.000000 -0.000000 -0.000000 -0.000000 -0.000000 -0.000000 -0.000000 -0.000000 -0.000000 -0.000000 -0.000000 -0.000000 -0.000000 -0.000000 -0.000000 -0.000000 -0.000000 -0.000000 -0.000000 -0.000000 -0.000000 -0.000000 -0.000000 -0.000000 -0.000000 -0.000000 -0.000000 -0.000000 -0.000000 -0.000000 -0.000000 -0.000000 -0.000000 -0.000000 -0.000000 -0.000000 -0.000000 -0.000000 -0.000000 -0.000000 -0.000000 -0.000000 -0.000000 -0.000000 -0.000000 -0.000000 -0.000000 -0.000000 -0.000000 -0.000000 -0.000000 -0.000000 -0.000000 -0.000000 -0.000000 -0.000000 -0.000000 -0.000000 -0.000000 -0.000000 -0.000000 -0.000000 -0.000000 -0.000000 -0.000000 -0.000000 -0.000000 -0.000000 -0.000000 -0.000000 -0.000000 -0.000000 -0.000000 -0.000000 -0.000000 -0.000000 -0.000000 -0.000000 -0.000000 -0.000000 -0.000000 -0.000000 -0.000000 -0.000000 -0.000000 -0.000000 -0.000000 -0.000000 -0.000000 -0.000000 -0.000000 -0.000000 -0.000000 -0.000000 -0.000000 -0.000000 -0.000000 -0.000000 -0.000000 -0.000000 -0.000000 -0.000000 -0.000000 -0.000000 -0.000000 -0.000000 -0.000000 -0.000000 -0.000000 -0.000000 -0.000000 -0.000000 -0.000000 -0.000000 -0.000000 -0.000000 -0.000000 -0.000000 -0.000000 0.000000 0.000000 0.000000 0.000000 0.000000 0.000000 0.000000 0.000000 0.000000 0.000000 0.000000 0.000000 0.000000 0.000000 0.000000 0.000000 0.000000 0.000000 0.000000 0.000000 0.000000 0.000000 0.000000 0.000000 0.000000 0.000000 0.000000 0.000000 0.000000 0.000000 0.000000 0.000000 0.000000 0.000000 0.000000 0.000000 0.000000 0.000000 0.000000 0.000000 0.000000 0.000000 0.000000 0.000000 0.000000 0.000000 0.000000 0.000000 0.000000 0.000000 0.000000 0.000000 0.000000 0.000000 0.000000 0.000000 0.000000 0.000000 0.000000 0.000000 0.000001 0.000001 0.000001 0.000001 0.000001 0.000001 0.000001 0.000001 0.000001 0.000001 0.000001 0.000001 0.000002 0.000002 0.000002 0.000002 0.000002 0.000001 0.000002 0.000002 0.000002 0.000002 0.000002 0.000002 0.000004 0.000004 0.000004 0.000004 0.000003 0.000003 0.000005 0.000005 0.000005 0.000005 0.000005 0.000005 0.000008 0.000008 0.000008 0.000008 0.000008 0.000008 0.000012 0.000012 0.000012 0.000012 0.000011 0.000011 0.000017 0.000017 0.000017 0.000017 0.000017 0.000017 0.000026 0.000026 0.000026 0.000026 0.000025 0.000024 0.000038 0.000038 0.000038 0.000038 0.000037 0.000036 0.000055 0.000055 0.000055 0.000055 0.000054 0.000053 0.000080 0.000080 0.000080 0.000080 0.000078 0.000077 0.000116 0.000116 0.000116 0.000116 0.000114 0.000112 0.000168 0.000168 0.000168 0.000168 0.000165 0.000161 0.000242 0.000242 0.000242 0.000242 0.000237 0.000233 0.000347 0.000347 0.000347 0.000347 0.000341 0.000334 0.000496 0.000496 0.000496 0.000495 0.000487 0.000478 0.000706 0.000706 0.000706 0.000705 0.000693 0.000680 0.001000 0.001000 0.001000 0.000998 0.000982 0.000964 0.001410 0.001410 0.001410 0.001408 0.001386 0.001361 0.001980 0.001980 0.001980 0.001977 0.001947 0.001914 0.002768 0.002768 0.002768 0.002764 0.002723 0.002678 0.003852 0.003852 0.003852 0.003847 0.003792 0.003731 0.005337 0.005337 0.005337 0.005329 0.005256 0.005175 0.007358 0.007358 0.007358 0.007349 0.007252 0.007145 0.010098 0.010098 0.010098 0.010086 0.009961 0.009823 0.013792 0.013792 0.013792 0.013776 0.013619 0.013449 0.018744 0.018744 0.018744 0.018725 0.018541 0.018351 0.025342 0.025342 0.025342 0.025325 0.025143 0.024982 0.034076 0.034076 0.034076 0.034069 0.033988 0.034011 0.045535 0.045535 0.045535 0.045567 0.045871 0.046513 0.060388 0.060388 0.060388 0.060538 0.061989 0.064435 0.079271 0.079271 0.079271 0.079727 0.084299 0.091799 0.102486 0.102486 0.102486 0.103636 0.116010 0.137979 0.129465 0.129465 0.129465 0.131831 0.159235 0.229359 0.158436 0.158436 0.158436 0.162215 0.208171 0.339403 0.548498 0.820941 1.111803 1.449083 1.851504 2.335860 2.919383 3.620575 4.459499 5.457791 6.638500 8.025743 9.644195 11.518368 13.671683 16.125310 18.896757 21.998230 25.434760 29.202139 33.284710 37.653090 42.261903 47.047665 51.926922 56.794815 61.524215 65.965589 69.947729 73.279482 75.752546 77.145369 77.228116 75.768603 72.538997 67.323033 59.923396 50.168892 37.920988 23.079302 5.585628 -14.573986 -37.369848 -62.733459 -90.569984 -120.786098 -153.350456 -188.424962 -226.651393 -269.781222 -322.067063 -393.353140 -505.988861 -711.009716 -1123.018306 -2140.311439 -2876.347078 1000.309281 3103.163388 1440.831618 529.024078 -237.081725 -1509.106896 -3461.935425 171.639971 4535.250692 3248.463786 2508.428135 2305.044108 2249.219422 2215.591069 2120.548058 1853.335836 1214.984662 -233.076693 -2738.204902 3460.982860 9122.238960 7811.539694 6921.178643 5908.540376 7576.829303 7871.447019 7647.386966 10874.250453 13924.111597 11770.395425 11629.545341 12458.910664 12600.159416 14212.094969 14365.165516 13898.491807 13940.560795 13652.878873 15323.615319 13051.593547 14266.392610 16015.716818 15852.542665 16464.252051 17590.554510 17851.197101 17851.197101 17851.197101 0.187783 0.187783 0.187783 0.192554 0.251255 0.408325 0.604316 0.843377 1.125830 1.461495 1.864703 2.350919 2.936893 3.640933 4.483006 5.484686 6.668955 8.059849 9.681934 11.559585 13.716050 16.172292 18.945577 22.047832 25.483784 29.248898 33.327178 37.688905 42.288389 47.061869 51.925676 56.774820 61.482151 65.898240 69.852132 73.153085 75.593370 76.952167 77.000517 75.507228 72.245540 67.000292 59.575267 49.800313 37.537886 22.688589 5.195398 -14.953767 -37.725535 -63.043393 -90.794493 -120.844700 -153.070040 -187.422054 -224.064623 -263.663474 -308.004014 -361.309190 -432.978938 -542.537586 -724.794223 -972.231991 -1000.674476 423.748921 1242.687984 874.264951 521.747299 178.103768 -194.817216 -403.258770 829.243463 2259.583171 2342.364444 2260.237495 2240.543561 2274.757425 2323.900773 2358.034392 2340.775066 2230.126635 2120.238171 2699.142241 4585.077293 6257.683931 6838.541331 7044.084667 7400.304572 8031.625117 8558.516364 9288.829318 10580.910281 11664.716311 11576.009768 11783.267513 12334.684022 12758.021059 13517.652610 13928.340200 13938.408296 13984.298854 13949.738934 14247.238568 13316.187004 15512.275506 17794.344900 18322.951178 18149.556161 17969.592664 17970.164350 17970.164350 17970.164350 0.204440 0.204440 0.204440 0.209882 0.273086 0.438002 0.630749 0.862182 1.140239 1.475201 1.879651 2.368122 2.956951 3.664268 4.509951 5.515506 6.703842 8.098902 9.725127 11.606735 13.766778 16.225979 19.001326 22.104432 25.539675 29.302144 33.375461 37.729524 42.318285 47.077668 51.923763 56.751435 61.433510 65.820682 69.742288 73.008055 75.410911 76.730873 76.739980 75.208170 71.909901 66.631269 59.177294 49.379002 37.099938 22.241760 4.748640 -15.389718 -38.136523 -63.407873 -91.074301 -120.963919 -152.866852 -186.539149 -221.699999 -258.004840 -294.950418 -331.606527 -365.919419 -392.899987 -399.203079 -348.042729 -157.521008 184.105050 453.039266 534.065712 523.585331 509.911120 554.738354 757.024429 1179.953135 1628.739022 1907.466388 2065.625150 2184.585781 2298.319881 2423.419826 2574.246733 2769.925449 3044.654236 3467.873317 4133.622385 5021.832782 5871.539533 6545.409289 7126.522485 7714.107971 8341.954527 8986.622450 9673.946148 10398.600967 11028.547463 11501.019132 11943.127061 12402.586626 12853.414097 13286.795395 13662.701008 13993.162287 14306.795546 14614.192899 14913.380927 15214.452099 15891.104318 16635.284685 17315.343608 17733.646022 17961.339036 18006.406459 18006.406459 18006.406459 0.206778 0.206778 0.206778 0.212411 0.275994 0.441658 0.634288 0.865047 1.142671 1.477609 1.882315 2.371202 2.960548 3.668455 4.514784 5.521033 6.710098 8.105903 9.732869 11.615183 13.775864 16.235592 19.011305 22.114559 25.549669 29.311659 33.384081 37.736765 42.323599 47.080452 51.923370 56.747192 61.424740 65.806732 69.722555 72.982023 75.378180 76.691193 76.693280 75.154579 71.849768 66.565166 59.106014 49.303546 37.021499 22.161713 4.668557 -15.467977 -38.210568 -63.474166 -91.126720 -120.990468 -152.842137 -186.407241 -221.335433 -257.124161 -292.912979 -326.973560 -355.523529 -370.163069 -353.055842 -271.932474 -90.818177 167.664573 384.644484 490.408680 524.779000 556.435873 650.626925 868.484108 1215.592085 1581.119881 1855.268522 2038.719130 2176.223002 2302.009444 2438.889987 2607.623680 2834.752727 3159.319875 3633.262542 4290.001874 5073.335527 5842.474278 6519.474012 7135.642156 7748.568509 8382.404305 9035.276272 9709.421151 10381.061256 10986.062705 11499.015904 11967.759984 12420.986193 12854.368635 13262.608861 13637.046996 13988.248053 14331.221456 14670.604161 15009.051543 15387.156563 15911.389309 16538.445692 17144.176718 17649.936230 17952.490924 18007.205561 18007.205561 18007.205561 0.206778 0.206778 0.206778 0.212411 0.275994 0.441658 0.634288 0.865047 1.142671 1.477609 1.882315 2.371202 2.960548 3.668455 4.514784 5.521033 6.710098 8.105903 9.732869 11.615183 13.775864 16.235592 19.011305 22.114559 25.549669 29.311659 33.384081 37.736765 42.323599 47.080452 51.923370 56.747192 61.424740 65.806732 69.722555 72.982023 75.378180 76.691193 76.693280 75.154579 71.849768 66.565166 59.106014 49.303546 37.021499 22.161713 4.668557 -15.467977 -38.210568 -63.474166 -91.126720 -120.990468 -152.842137 -186.407241 -221.335433 -257.124161 -292.912979 -326.973560 -355.523529 -370.163069 -353.055842 -271.932474 -90.818177 167.664573 384.644484 490.408680 524.779000 556.435873 650.626925 868.484108 1215.592085 1581.119881 1855.268522 2038.719130 2176.223002 2302.009444 2438.889987 2607.623680 2834.752727 3159.319875 3633.262542 4290.001874 5073.335527 5842.474278 6519.474012 7135.642156 7748.568509 8382.404305 9035.276272 9709.421151 10381.061256 10986.062705 11499.015904 11967.759984 12420.986193 12854.368635 13262.608861 13637.046996 13988.248053 14331.221456 14670.604161 15009.051543 15387.156563 15911.389309 16538.445692 17144.176718 17649.936230 17952.490924 18007.205561 18007.205561 18007.205561 0.206778 0.206778 0.206778 0.212411 0.275994 0.441658 0.634288 0.865047 1.142671 1.477609 1.882315 2.371202 2.960548 3.668455 4.514784 5.521033 6.710098 8.105903 9.732869 11.615183 13.775864 16.235592 19.011305 22.114559 25.549669 29.311659 33.384081 37.736765 42.323599 47.080452 51.923370 56.747192 61.424740 65.806732 69.722555 72.982023 75.378180 76.691193 76.693280 75.154579 71.849768 66.565166 59.106014 49.303546 37.021499 22.161713 4.668557 -15.467977 -38.210568 -63.474166 -91.126720 -120.990468 -152.842137 -186.407241 -221.335433 -257.124161 -292.912979 -326.973560 -355.523529 -370.163069 -353.055842 -271.932474 -90.818177 167.664573 384.644484 490.408680 524.779000 556.435873 650.626925 868.484108 1215.592085 1581.119881 1855.268522 2038.719130 2176.223002 2302.009444 2438.889987 2607.623680 2834.752727 3159.319875 3633.262542 4290.001874 5073.335527 5842.474278 6519.474012 7135.642156 7748.568509 8382.404305 9035.276272 9709.421151 10381.061256 10986.062705 11499.015904 11967.759984 12420.986193 12854.368635 13262.608861 13637.046996 13988.248053 14331.221456 14670.604161 15009.051543 15387.156563 15911.389309 16538.445692 17144.176718 17649.936230 17952.490924 18007.205561 18007.205561 18007.205561 -1394.156075 -1442.512079 -1503.934884 -1584.943184 -1701.210709 -1885.459286 -2209.351421 -2372.260393 -906.995476 88.166197 -802.935119 -1634.340657 -616.308289 910.094120 409.050845 -307.521897 -1040.701598 -932.710632 860.785776 1204.513688 562.622542 115.607417 -338.764577 -1053.002765 -871.543976 1187.779833 2015.256039 2112.507451 2418.617125 2848.587407 3245.046709 3584.677745 4996.581617 5149.864162 5363.928300 5563.209601 5692.966619 6430.548594 6749.061195 7153.519310 7731.478050 8660.257401 8822.970989 9501.255232 10708.066985 11080.661710 11910.328037 13063.202778 12557.641827 12115.679555 13992.857941 14363.832371 13663.948197 13578.832194 13578.832194 13578.832194 -1988.176530 -633.772886 2502.371802 14253.582066 15958.010285 14602.950989 13548.404776 15971.860363 16870.966066 14465.331553 17717.213239 17489.056209 15595.401442 14091.371117 14435.334270 15901.497893 14607.981571 15154.723862 16391.735727 14975.918918 14376.212223 15932.288645 14653.850846 14904.774640 15214.389502 13830.973483 16713.601933 13510.564621 14476.693263 13001.621029 15701.059121 14542.144914 15017.980730 14791.613534 15735.276249 15267.978152 14302.234899 16041.422883 17070.355198 15822.982033 16609.350319 17557.716580 15382.466745 14802.287686 14945.702575 14591.312631 14090.947174 14601.587748 15074.051477 13263.579693 16350.388901 14652.515949 13831.143218 13718.696957 13718.696957 13718.696957 -20.573912 1522.616352 12663.979433 5754.977109 14204.742604 15431.574243 14075.401219 11928.131441 15035.067013 13803.482365 17218.720603 14869.531918 13389.463922 14280.891457 14838.497344 15347.958546 13949.402801 16593.051791 15086.406681 14641.009372 13925.155111 14866.171721 15393.315056 15431.779850 16988.587990 14827.078488 14586.609024 15419.262771 14598.950955 13919.128840 11606.903253 13188.272679 14957.383837 13854.011963 14222.355580 13599.979477 14203.787700 12657.644952 14460.217740 17180.299800 13584.095796 14545.101700 13267.449748 13153.753762 13124.163903 12918.176453 15805.466379 14304.467579 12316.954007 17083.797824 13083.639287 14821.753109 13973.052282 13917.642141 13917.642141 13917.642141 1216.715526 2486.326611 14549.152944 13723.158701 14978.214473 13392.358996 14994.142274 14287.712378 14160.425594 16248.229051 14753.046061 17503.457650 14358.490837 15014.477088 16251.277926 18219.525983 15657.120405 15321.050914 15644.035359 14724.558581 16859.152034 14948.614639 12429.954182 13314.099097 14316.885150 15138.448400 14804.136310 14951.059852 13160.170362 15131.477002 15676.244857 13079.759229 13602.113750 14643.064573 12947.193521 12008.979605 14623.336550 15260.193139 13681.112754 11390.515429 14736.481002 14317.118410 13707.901727 14922.199581 12686.268358 14273.648845 1