<VTKFile type="PolyData">
<PolyData>
<Piece NumberOfPoints="8632" NumberOfVerts="8632" NumberOfLines="0" NumberOfStrips="0" NumberOfPolys="0">
<PointData>
<DataArray type="Float64" Name="Pressure" format="ascii">
 -3.370687 -3.370687 -3.370687 -3.415585 -3.919605 -5.223986 -6.711071 -8.420506 -10.351719 -12.514994 -14.934966 -17.645154 -20.684518 -24.095951 -27.925741 -32.223433 -37.041824 -42.437003 -48.468380 -55.198688 -62.693952 -71.023410 -80.259389 -90.477126 -101.754527 -114.171871 -127.811439 -142.757080 -159.093701 -176.906679 -196.281210 -217.301577 -240.050359 -264.607587 -291.049862 -319.449444 -349.873358 -382.382506 -417.030835 -453.864562 -492.921439 -534.230062 -577.809121 -623.666508 -671.798080 -722.185826 -774.795067 -829.570130 -886.427643 -945.245810 -1005.846188 -1067.959717 -1131.157224 -1194.703705 -1257.275094 -1316.801261 -1370.987777 -1417.368374 -1451.548292 -1464.620747 -1439.566891 -1349.021337 -1182.150356 -995.712421 -854.449391 -730.418629 -571.602790 -409.310273 -320.925549 -300.577668 -286.269644 -221.520029 -111.531275 -43.445168 -54.664254 -93.581783 -89.087262 22.718757 267.145528 577.115736 878.818092 1214.377878 1591.258612 1894.734909 2073.863152 2224.014458 2478.907713 2922.307169 3554.193795 4303.493915 5083.378471 5842.005256 6572.297723 7297.483689 8032.037440 8757.463112 9443.588201 10070.986120 10638.395949 11158.429608 11635.877001 12050.131298 12372.561265 12599.176324 12758.302980 12894.026230 13026.948955 13118.358907 13135.843227 13135.843227 13135.843227 -3.370687 -3.370687 -3.370687 -3.415585 -3.919605 -5.223986 -6.711071 -8.420506 -10.351719 -12.514994 -14.934966 -17.645154 -20.684518 -24.095951 -27.925741 -32.223433 -37.041824 -42.437003 -48.468380 -55.198688 -62.693952 -71.023410 -80.259389 -90.477126 -101.754527 -114.171871 -127.811439 -142.757080 -159.093701 -176.906679 -196.281210 -217.301577 -240.050359 -264.607587 -291.049862 -319.449444 -349.873358 -382.382506 -417.030835 -453.864562 -492.921439 -534.230062 -577.809121 -623.666508 -671.798080 -722.185826 -774.795067 -829.570130 -886.427643 -945.245810 -1005.846188 -1067.959717 -1131.157224 -1194.703705 -1257.275094 -1316.801261 -1370.987777 -1417.368374 -1451.548292 -1464.620747 -1439.566891 -1349.021337 -1182.150356 -995.712421 -854.449391 -730.418629 -571.602790 -409.310273 -320.925549 -300.577668 -286.269644 -221.520029 -111.531275 -43.445168 -54.664254 -93.581783 -89.087262 22.718757 267.145528 577.115736 878.818092 1214.377878 1591.258612 1894.734909 2073.863152 2224.014458 2478.907713 2922.307169 3554.193795 4303.493915 5083.378471 5842.005256 6572.297723 7297.483689 8032.037440 8757.463112 9443.588201 10070.986120 10638.395949 11158.429608 11635.877001 12050.131298 12372.561265 12599.176324 12758.302980 12894.026230 13026.948955 13118.358907 13135.843227 13135.843227 13135.843227 -3.370687 -3.370687 -3.370687 -3.415585 -3.919605 -5.223986 -6.711071 -8.420506 -10.351719 -12.514994 -14.934966 -17.645154 -20.684518 -24.095951 -27.925741 -32.223433 -37.041824 -42.437003 -48.468380 -55.198688 -62.693952 -71.023410 -80.259389 -90.477126 -101.754527 -114.171871 -127.811439 -142.757080 -159.093701 -176.906679 -196.281210 -217.301577 -240.050359 -264.607587 -291.049862 -319.449444 -349.873358 -382.382506 -417.030835 -453.864562 -492.921439 -534.230062 -577.809121 -623.666508 -671.798080 -722.185826 -774.795067 -829.570130 -886.427643 -945.245810 -1005.846188 -1067.959717 -1131.157224 -1194.703705 -1257.275094 -1316.801261 -1370.987777 -1417.368374 -1451.548292 -1464.620747 -1439.566891 -1349.021337 -1182.150356 -995.712421 -854.449391 -730.418629 -571.602790 -409.310273 -320.925549 -300.577668 -286.269644 -221.520029 -111.531275 -43.445168 -54.664254 -93.581783 -89.087262 22.718757 267.145528 577.115736 878.818092 1214.377878 1591.258612 1894.734909 2073.863152 2224.014458 2478.907713 2922.307169 3554.193795 4303.493915 5083.378471 5842.005256 6572.297723 7297.483689 8032.037440 8757.463112 9443.588201 10070.986120 10638.395949 11158.429608 11635.877001 12050.131298 12372.561265 12599.176324 12758.302980 12894.026230 13026.948955 13118.358907 13135.843227 13135.843227 13135.843227 -3.354145 -3.354145 -3.354145 -3.398167 -3.898367 -5.193806 -6.684045 -8.403711 -10.342376 -12.508893 -14.929890 -17.640125 -20.679118 -24.089988 -27.919114 -32.216073 -37.033675 -42.428015 -48.458504 -55.187876 -62.682157 -71.010589 -80.245499 -90.462127 -101.738386 -114.154556 -127.792927 -142.737355 -159.072753 -176.884509 -196.257829 -217.277005 -240.024629 -264.580745 -291.021965 -319.420565 -349.843579 -382.351922 -416.999553 -453.832697 -492.889120 -534.197428 -577.776329 -623.633745 -671.765593 -722.153987 -774.764522 -829.542159 -886.405023 -945.234948 -1005.862359 -1068.039768 -1131.388310 -1195.276504 -1258.443615 -1318.689831 -1373.630724 -1421.525606 -1458.897822 -1477.960170 -1462.443533 -1378.250047 -1218.978790 -986.901417 -850.044668 -745.681867 -587.366170 -383.374225 -298.794506 -298.790614 -304.125937 -243.505624 -91.950014 -14.340786 -42.727590 -106.246556 -126.214057 -29.146062 233.630866 566.068299 842.971750 1165.733921 1595.806269 1933.234871 2082.696841 2179.626940 2387.349945 2811.420918 3456.786798 4238.205199 5046.361337 5820.738720 6549.687801 7271.006766 8013.431398 8751.252715 9448.177668 10079.597390 10642.614620 11160.492263 11644.763326 12069.415144 12392.648767 12608.528723 12748.918844 12878.387060 13021.344566 13123.078600 13142.439439 13142.439439 13142.439439 -3.174769 -3.174769 -3.174769 -3.209538 -3.639995 -4.792598 -6.335823 -8.225504 -10.248360 -12.448391 -14.879431 -17.589985 -20.625199 -24.030421 -27.852892 -32.142520 -36.952239 -42.338189 -48.359800 -55.079817 -62.564278 -70.882443 -80.106665 -90.312215 -101.577045 -113.981489 -127.607894 -142.540185 -158.863359 -176.662892 -196.024091 -217.031360 -239.767409 -264.312403 -290.743083 -319.131851 -349.545865 -382.046160 -416.686803 -453.514126 -492.565998 -533.871147 -577.448457 -623.306147 -671.440714 -721.835488 -774.458748 -829.261612 -886.176783 -945.121376 -1006.012380 -1068.815460 -1133.671131 -1201.108109 -1272.342942 -1341.600466 -1403.049120 -1466.623415 -1538.709414 -1626.049407 -1727.207531 -1924.299501 -1680.784911 -841.024762 -780.040606 -1075.181929 -819.375448 13.925103 13.860629 -280.438623 -564.351339 -616.206535 173.504945 471.591471 100.251725 -247.125273 -565.521913 -761.713226 -226.755491 699.563650 377.575698 369.087780 1636.065668 2562.306159 2283.113866 1665.416286 1263.501622 1413.522475 2213.662793 3391.608172 4555.630384 5536.261855 6225.852584 6858.044529 7693.388561 8591.151146 9435.749385 10113.183627 10586.255059 11035.982041 11591.658471 12158.977558 12528.982739 12685.073024 12631.759583 12669.677021 12925.506051 13170.643691 13216.803465 13216.803465 13216.803465 -2.919573 -2.919573 -2.919573 -2.946654 -3.258339 -4.083190 -5.574998 -7.916207 -10.113617 -12.369925 -14.818490 -17.531649 -20.563431 -23.962568 -27.777607 -32.058955 -36.859735 -42.236156 -48.247677 -54.957059 -62.430357 -70.736848 -79.948915 -90.141865 -101.393697 -113.784800 -127.397591 -142.316075 -158.625338 -176.410961 -195.758365 -216.752080 -239.474949 -264.007280 -290.425958 -318.803530 -349.207295 -381.698423 -416.331108 -453.151801 -492.198493 -533.500056 -577.075586 -622.933687 -671.071634 -721.474444 -774.114220 -828.951033 -885.939076 -945.047979 -1006.324828 -1070.062138 -1137.241338 -1210.732391 -1298.753415 -1376.577690 -1439.078414 -1519.329430 -1632.232186 -1803.037382 -2082.341093 -2548.674514 -1763.415713 -241.348960 -625.703241 -1566.890564 -1034.937540 675.961678 484.738656 -257.525065 -959.705668 -1205.982599 494.924478 1200.459007 314.542800 -413.546527 -1132.201195 -2085.063543 -1086.464327 1454.711155 -219.740190 -2654.195900 1692.897640 4967.944533 2675.919641 1040.968493 -566.368817 -1022.114932 -103.531922 1801.816116 3360.555950 5072.473969 5654.441147 5872.886581 7034.596612 8099.582594 9303.636119 10290.360887 10022.700108 10190.619812 10860.765112 11720.066648 12204.506375 13001.579573 12676.205378 12415.398608 12691.498677 13198.599518 13324.408526 13324.408526 13324.408526 -2.883434 -2.883434 -2.883434 -2.909433 -3.205971 -3.971062 -2.632535 -2.632535 -2.632535 -2.649521 -2.842438 -3.263495 -2.243359 -2.243359 -2.243359 -2.250895 -2.331142 -2.467345 -1.891964 -1.891964 -1.891964 -1.894811 -1.922973 -1.969575 -1.585790 -1.585790 -1.585790 -1.586570 -1.594027 -1.607801 -1.323458 -1.323458 -1.323458 -1.323451 -1.323221 -1.324994 -1.100798 -1.100798 -1.100798 -1.100525 -1.097737 -1.095368 -0.912903 -0.912903 -0.912903 -0.912566 -0.909178 -0.905646 -0.754999 -0.754999 -0.754999 -0.754671 -0.751395 -0.747804 -0.622744 -0.622744 -0.622744 -0.622451 -0.619518 -0.616244 -0.512307 -0.512307 -0.512307 -0.512053 -0.509513 -0.506654 -0.420353 -0.420353 -0.420353 -0.420136 -0.417970 -0.415524 -0.344001 -0.344001 -0.344001 -0.343818 -0.341987 -0.339917 -0.280781 -0.280781 -0.280781 -0.280627 -0.279088 -0.277347 -0.228577 -0.228577 -0.228577 -0.228448 -0.227160 -0.225702 -0.185589 -0.185589 -0.185589 -0.185482 -0.184407 -0.183191 -0.150289 -0.150289 -0.150289 -0.150199 -0.149306 -0.148295 -0.121380 -0.121380 -0.121380 -0.121306 -0.120565 -0.119727 -0.097772 -0.097772 -0.097772 -0.097711 -0.097098 -0.096406 -0.078546 -0.078546 -0.078546 -0.078495 -0.077991 -0.077420 -0.062932 -0.062932 -0.062932 -0.062891 -0.062476 -0.062007 -0.050287 -0.050287 -0.050287 -0.050253 -0.049914 -0.049530 -0.040075 -0.040075 -0.040075 -0.040047 -0.039770 -0.039457 -0.031851 -0.031851 -0.031851 -0.031829 -0.031603 -0.031348 -0.025247 -0.025247 -0.025247 -0.025228 -0.025045 -0.024838 -0.019958 -0.019958 -0.019958 -0.019943 -0.019794 -0.019627 -0.015734 -0.015734 -0.015734 -0.015722 -0.015602 -0.015467 -0.012371 -0.012371 -0.012371 -0.012361 -0.012265 -0.012156 -0.009700 -0.009700 -0.009700 -0.009692 -0.009615 -0.009527 -0.007585 -0.007585 -0.007585 -0.007579 -0.007517 -0.007447 -0.005915 -0.005915 -0.005915 -0.005910 -0.005861 -0.005805 -0.004600 -0.004600 -0.004600 -0.004596 -0.004557 -0.004513 -0.003568 -0.003568 -0.003568 -0.003565 -0.003534 -0.003499 -0.002760 -0.002760 -0.002760 -0.002757 -0.002733 -0.002705 -0.002129 -0.002129 -0.002129 -0.002127 -0.002107 -0.002085 -0.001637 -0.001637 -0.001637 -0.001636 -0.001621 -0.001604 -0.001256 -0.001256 -0.001256 -0.001255 -0.001243 -0.001230 -0.000961 -0.000961 -0.000961 -0.000960 -0.000951 -0.000940 -0.000733 -0.000733 -0.000733 -0.000732 -0.000725 -0.000717 -0.000558 -0.000558 -0.000558 -0.000557 -0.000552 -0.000545 -0.000423 -0.000423 -0.000423 -0.000423 -0.000418 -0.000414 -0.000320 -0.000320 -0.000320 -0.000320 -0.000317 -0.000313 -0.000242 -0.000242 -0.000242 -0.000241 -0.000239 -0.000236 -0.000182 -0.000182 -0.000182 -0.000182 -0.000180 -0.000177 -0.000136 -0.000136 -0.000136 -0.000136 -0.000135 -0.000133 -0.000102 -0.000102 -0.000102 -0.000102 -0.000101 -0.000100 -0.000076 -0.000076 -0.000076 -0.000076 -0.000075 -0.000074 -0.000057 -0.000057 -0.000057 -0.000057 -0.000056 -0.000055 -0.000042 -0.000042 -0.000042 -0.000042 -0.000042 -0.000041 -0.000031 -0.000031 -0.000031 -0.000031 -0.000031 -0.000030 -0.000023 -0.000023 -0.000023 -0.000023 -0.000023 -0.000022 -0.000017 -0.000017 -0.000017 -0.000017 -0.000017 -0.000016 -0.000012 -0.000012 -0.000012 -0.000012 -0.000012 -0.000012 -0.000009 -0.000009 -0.000009 -0.000009 -0.000009 -0.000009 -0.000007 -0.000007 -0.000007 -0.000007 -0.000007 -0.000006 -0.000005 -0.000005 -0.000005 -0.000005 -0.000005 -0.000005 -0.000004 -0.000004 -0.000004 -0.000004 -0.000003 -0.000003 -0.000003 -0.000003 -0.000003 -0.000003 -0.000002 -0.000002 -0.000002 -0.000002 -0.000002 -0.000002 -0.000002 -0.000002 -0.000001 -0.000001 -0.000001 -0.000001 -0.000001 -0.000001 -0.000001 -0.000001 -0.000001 -0.000001 -0.000001 -0.000001 -0.000001 -0.000001 -0.000001 -0.000001 -0.000001 -0.000001 -0.000000 -0.000000 -0.000000 -0.000000 -0.000000 -0.000000 -0.000000 -0.000000 -0.000000 -0.000000 -0.000000 -0.000000 -0.000000 -0.000000 -0.000000 -0.000000 -0.000000 -0.000000 -0.000000 -0.000000 -0.000000 -0.000000 -0.000000 -0.000000 -0.000000 -0.000000 -0.000000 -0.000000 -0.000000 -0.000000 -0.000000 -0.000000 -0.000000 -0.000000 -0.000000 -0.000000 -0.000000 -0.000000 -0.000000 -0.000000 -0.000000 -0.000000 -0.000000 -0.000000 -0.000000 -0.000000 -0.000000 -0.000000 -0.000000 -0.000000 -0.000000 -0.000000 -0.000000 -0.000000 -0.000000 -0.000000 -0.000000 -0.000000 -0.000000 -0.000000 -0.000000 -0.000000 -0.000000 -0.000000 -0.000000 -0.000000 -0.000000 -0.000000 -0.000000 -0.000000 -0.000000 -0.000000 -0.000000 -0.000000 -0.000000 -0.000000 -0.000000 -0.000000 -0.000000 -0.000000 -0.000000 -0.000000 -0.000000 -0.000000 -0.000000 -0.000000 -0.000000 -0.000000 -0.000000 -0.000000 -0.000000 -0.000000 -0.000000 -0.000000 -0.000000 -0.000000 -0.000000 -0.000000 -0.000000 -0.000000 -0.000000 -0.000000 -0.000000 -0.000000 -0.000000 -0.000000 -0.000000 -0.000000 -0.000000 -0.000000 -0.000000 -0.000000 -0.000000 -0.000000 -0.000000 -0.000000 -0.000000 -0.000000 -0.000000 -0.000000 -0.000000 -0.000000 -0.000000 -0.000000 -0.000000 -0.000000 -0.000000 -0.000000 -0.000000 -0.000000 -0.000000 -0.000000 -0.000000 -0.000000 -0.000000 -0.000000 -0.000000 -0.000000 -0.000000 -0.000000 -0.000000 -0.000000 -0.000000 -0.000000 -0.000000 -0.000000 -0.000000 -0.000000 -0.000000 -0.000000 -0.000000 -0.000000 -0.000000 -0.000000 -0.000000 -0.000000 -0.000000 -0.000000 -0.000000 -0.000000 -0.000000 -0.000000 -0.000000 -0.000000 -0.000000 -0.000000 -0.000000 -0.000000 -0.000000 -0.000000 -0.000000 -0.000000 -0.000000 -0.000000 -0.000000 -0.000000 -0.000000 -0.000000 -0.000000 -0.000000 -0.000000 -0.000000 -0.000000 -0.000000 -0.000000 -0.000000 -0.000000 -0.000000 -0.000000 -0.000000 -0.000000 -0.000000 -0.000000 -0.000000 -0.000000 -0.000000 -0.000000 -0.000000 -0.000000 -0.000000 -0.000000 -0.000000 -0.000000 -0.000000 -0.000000 -0.000000 -0.000000 -0.000000 -0.000000 -0.000000 -0.000000 -0.000000 -0.000000 -0.000000 -0.000000 -0.000000 -0.000000 -0.000000 -0.000000 -0.000000 -0.000000 -0.000000 -0.000000 -0.000000 -0.000000 -0.000000 -0.000000 -0.000000 -0.000000 -0.000000 -0.000000 -0.000000 -0.000000 -0.000000 -0.000000 -0.000000 -0.000000 -0.000000 -0.000000 -0.000000 -0.000000 -0.000000 -0.000000 -0.000000 -0.000000 -0.000000 -0.000000 -0.000000 -0.000000 -0.000000 -0.000000 -0.000000 -0.000000 -0.000000 -0.000000 -0.000000 -0.000000 -0.000000 -0.000000 -0.000000 -0.000000 -0.000000 -0.000000 -0.000000 -0.000000 -0.000000 -0.000000 -0.000000 -0.000000 -0.000000 -0.000000 -0.000000 -0.000000 -0.000000 -0.000000 -0.000000 -0.000000 -0.000000 -0.000000 -0.000000 -0.000000 -0.000000 -0.000000 -0.000000 -0.000000 -0.000000 -0.000000 -0.000000 -0.000000 -0.000000 -0.000000 -0.000000 -0.000000 -0.000000 -0.000000 -0.000000 -0.000000 -0.000000 -0.000000 -0.000000 -0.000000 -0.000000 -0.000000 -0.000000 -0.000000 -0.000000 -0.000000 -0.000000 -0.000000 -0.000000 -0.000000 -0.000000 -0.000000 -0.000000 -0.000000 -0.000000 -0.000000 -0.000000 -0.000000 -0.000000 -0.000000 -0.000000 -0.000000 -0.000000 -0.000000 -0.000000 -0.000000 -0.000000 -0.000000 -0.000000 -0.000000 -0.000000 -0.000000 -0.000000 -0.000000 -0.000000 -0.000000 -0.000000 -0.000000 -0.000000 -0.000000 -0.000000 -0.000000 -0.000000 -0.000000 -0.000000 -0.000000 -0.000000 -0.000000 -0.000000 -0.000000 -0.000000 -0.000000 -0.000000 -0.000000 -0.000000 -0.000000 -0.000000 -0.000000 -0.000000 -0.000000 -0.000000 -0.000000 -0.000000 -0.000000 -0.000000 -0.000000 -0.000000 -0.000000 -0.000000 -0.000000 -0.000000 -0.000000 -0.000000 -0.000000 -0.000000 -0.000000 -0.000000 -0.000000 -0.000000 -0.000000 -0.000000 -0.000000 -0.000000 -0.000000 -0.000000 -0.000000 -0.000000 -0.000000 -0.000000 -0.000000 -0.000000 -0.000000 -0.000000 -0.000000 -0.000000 -0.000000 -0.000000 -0.000000 -0.000000 -0.000000 -0.000000 -0.000000 -0.000000 -0.000000 -0.000000 -0.000000 -0.000000 -0.000000 -0.000000 -0.000000 -0.000000 -0.000000 -0.000000 -0.000000 -0.000000 -0.000000 -0.000000 -0.000000 -0.000000 -0.000000 -0.000000 -0.000000 -0.000000 -0.000000 -0.000000 -0.000000 -0.000000 -0.000000 -0.000000 -0.000000 -0.000000 -0.000000 -0.000000 -0.000000 -0.000000 -0.000000 -0.000000 -0.000000 -0.000000 -0.000000 -0.000000 -0.000000 -0.000000 -0.000000 -0.000000 -0.000000 -0.000000 -0.000000 -0.000000 -0.000000 -0.000000 -0.000000 -0.000000 -0.000000 -0.000000 -0.000000 -0.000000 -0.000000 -0.000000 -0.000000 -0.000000 -0.000000 -0.000000 -0.000000 -0.000000 -0.000000 -0.000000 -0.000000 -0.000000 -0.000000 -0.000000 -0.000000 -0.000000 -0.000000 -0.000000 -0.000000 -0.000000 -0.000000 -0.000000 -0.000000 -0.000000 -0.000000 -0.000000 -0.000000 -0.000000 -0.000000 -0.000000 -0.000000 -0.000000 -0.000000 -0.000000 -0.000000 -0.000000 -0.000000 -0.000000 -0.000000 -0.000000 -0.000000 -0.000000 -0.000000 -0.000000 -0.000000 -0.000000 -0.000000 -0.000000 -0.000000 -0.000000 -0.000000 -0.000000 -0.000000 -0.000000 -0.000000 -0.000000 -0.000000 -0.000000 -0.000000 -0.000000 -0.000000 -0.000000 -0.000000 -0.000000 -0.000000 -0.000000 -0.000000 -0.000000 -0.000000 -0.000000 -0.000000 -0.000000 -0.000000 -0.000000 -0.000000 -0.000000 -0.000000 -0.000000 -0.000000 -0.000000 -0.000000 -0.000000 -0.000000 -0.000000 -0.000000 -0.000000 -0.000000 -0.000000 -0.000000 -0.000000 -0.000000 -0.000000 -0.000000 -0.000000 -0.000000 -0.000000 -0.000000 -0.000000 -0.000000 -0.000000 -0.000000 -0.000000 -0.000000 -0.000000 -0.000000 -0.000000 -0.000000 -0.000000 -0.000000 -0.000000 -0.000000 -0.000000 -0.000000 -0.000000 -0.000000 -0.000000 -0.000000 -0.000000 -0.000000 -0.000000 -0.000000 -0.000000 -0.000000 -0.000000 -0.000000 -0.000000 -0.000000 -0.000000 -0.000000 -0.000000 -0.000000 -0.000000 -0.000000 -0.000000 -0.000000 -0.000000 -0.000000 -0.000000 -0.000000 -0.000000 -0.000000 -0.000000 -0.000000 -0.000000 -0.000000 -0.000000 -0.000000 -0.000000 -0.000000 -0.000000 -0.000000 -0.000000 -0.000000 -0.000000 -0.000000 -0.000000 -0.000000 -0.000000 -0.000000 -0.000000 -0.000000 -0.000000 -0.000000 -0.000000 -0.000000 -0.000000 -0.000000 -0.000000 -0.000000 -0.000000 -0.000000 -0.000000 -0.000000 -0.000000 -0.000000 -0.000000 -0.000000 -0.000000 -0.000000 -0.000000 -0.000000 -0.000000 -0.000000 -0.000000 -0.000000 -0.000000 -0.000000 -0.000000 -0.000000 -0.000000 -0.000000 -0.000000 -0.000000 -0.000000 -0.000000 -0.000000 -0.000000 -0.000000 -0.000000 -0.000000 -0.000000 -0.000000 -0.000000 -0.000000 -0.000000 -0.000000 -0.000000 -0.000000 -0.000000 -0.000000 -0.000000 -0.000000 -0.000000 -0.000000 -0.000000 -0.000000 -0.000000 -0.000000 -0.000000 -0.000000 -0.000000 -0.000000 -0.000000 -0.000000 -0.000000 -0.000000 -0.000000 -0.000000 -0.000000 -0.000000 -0.000000 -0.000000 -0.000000 -0.000000 -0.000000 -0.000000 -0.000000 -0.000000 0.000000 0.000000 0.000000 0.000000 0.000000 0.000000 0.000000 0.000000 0.000000 0.000000 0.000000 0.000000 0.000000 0.000000 0.000000 0.000000 0.000000 0.000000 0.000001 0.000001 0.000001 0.000001 0.000001 0.000001 0.000002 0.000002 0.000002 0.000002 0.000002 0.000002 0.000003 0.000003 0.000003 0.000003 0.000003 0.000003 0.000005 0.000005 0.000005 0.000005 0.000005 0.000004 0.000008 0.000008 0.000008 0.000008 0.000007 0.000007 0.000012 0.000012 0.000012 0.000012 0.000011 0.000011 0.000018 0.000018 0.000018 0.000018 0.000018 0.000017 0.000028 0.000028 0.000028 0.000028 0.000027 0.000027 0.000043 0.000043 0.000043 0.000043 0.000042 0.000041 0.000065 0.000065 0.000065 0.000065 0.000063 0.000062 0.000098 0.000098 0.000098 0.000098 0.000096 0.000094 0.000148 0.000148 0.000148 0.000148 0.000146 0.000144 0.000223 0.000223 0.000223 0.000223 0.000221 0.000220 0.000334 0.000334 0.000334 0.000335 0.000336 0.000341 0.000500 0.000500 0.000500 0.000502 0.000516 0.000541 0.000743 0.000743 0.000743 0.000748 0.000802 0.000890 0.001089 0.001089 0.001089 0.001106 0.001273 0.001546 0.001561 0.001561 0.001561 0.001604 0.002073 0.002911 0.002156 0.002156 0.002156 0.002248 0.003327 0.006173 0.002828 0.002828 0.002828 0.002979 0.004853 0.010439 0.020189 0.034768 0.053433 0.079193 0.115383 0.166221 0.237210 0.335533 0.470486 0.653969 0.901036 1.230507 1.665632 2.234803 2.972303 3.919078 5.123509 6.642148 8.540375 10.892863 13.783743 17.306244 21.561533 26.656382 32.699196 39.793893 48.031114 57.476316 68.154518 80.031805 92.994211 106.825219 121.183895 135.586347 149.393854 161.811283 171.899307 178.603143 180.799142 177.358322 167.222994 149.488671 123.477881 88.783244 45.239510 -7.253278 -69.216073 -142.732862 -234.016526 -359.142827 -557.332504 -920.772421 -1743.546271 -2800.543002 177.682894 2974.191195 1645.198054 668.441038 -139.394718 -1655.099653 -1951.919257 1881.572031 3372.581770 2840.523288 2495.286632 1457.870668 -1757.674917 -2284.424008 2525.064026 1552.270885 1649.498679 327.140301 -2979.101704 16747.932811 14185.056330 567.695640 8664.252138 9550.846563 8984.323400 9768.775683 14126.468447 13384.233303 15405.546833 18956.726600 20474.597209 19134.352508 16476.077147 23224.707515 19279.026276 22957.014842 20974.176063 21587.419218 27430.495686 29186.702765 27274.760042 28560.489388 28166.416387 28425.307246 28937.585234 25788.977537 20183.579211 23076.674504 23516.571394 23516.571394 23516.571394 0.003530 0.003530 0.003530 0.003727 0.006198 0.013118 0.022689 0.036102 0.054715 0.080802 0.117549 0.169169 0.241200 0.340880 0.477575 0.663264 0.913093 1.245978 1.685274 2.259485 3.003007 3.956901 5.169657 6.697927 8.607161 10.972060 13.876708 17.414170 21.685278 26.796228 32.854532 39.962821 48.209984 57.659226 68.332827 80.193737 93.124636 106.905743 121.193342 135.501757 149.192035 161.470933 171.403645 177.942965 179.976253 176.389532 166.145517 148.369323 122.431966 88.016921 45.147028 -5.866766 -64.627592 -131.154626 -206.997504 -297.587045 -416.656288 -591.980293 -828.853449 -1007.353653 155.668960 1232.264254 969.163827 651.458138 308.523908 -116.724178 -70.699491 1532.347448 2503.875905 2730.209490 2816.514807 2602.230452 2133.347806 2351.524271 3962.815477 4728.287829 5673.332582 6720.680600 8039.749401 13075.330980 11905.435513 9655.920365 11344.810395 12096.919398 14298.013958 15560.759729 17116.935592 17492.561219 17996.323119 19374.966363 20372.873643 19287.900679 18775.836324 21639.596122 18575.618002 18737.487552 18339.925609 18816.761576 21485.309486 23158.573442 24043.304902 26315.416435 26309.680429 26836.431720 26504.995819 23874.259699 21591.445491 22812.431170 22967.212397 22967.212397 22967.212397 0.003948 0.003948 0.003948 0.004176 0.006887 0.014321 0.023995 0.037367 0.056140 0.082648 0.120053 0.172580 0.245814 0.347060 0.485761 0.673990 0.926995 1.263804 1.707893 2.287891 3.038326 4.000388 5.222693 6.762002 8.683844 11.062949 13.983340 17.537886 21.827025 26.956282 33.032135 40.155732 48.413948 57.867413 68.535283 80.376941 93.271276 106.994819 121.200746 135.401407 148.957649 161.078430 170.834093 177.185967 179.033660 175.279601 164.908226 147.075007 121.198743 87.049741 44.827631 -4.773119 -60.501565 -120.462335 -181.925098 -240.846320 -290.602878 -318.114417 -293.492172 -142.123034 178.887814 485.174715 618.837178 652.544775 680.390185 785.444490 1094.350485 1638.073121 2200.262056 2675.416092 3096.057346 3496.432244 3961.975067 4676.030210 5682.130754 6800.381239 7993.206141 9231.344925 10488.886219 11528.301328 11932.923676 12350.755150 13186.236756 14156.510026 15143.304173 16000.932577 16724.516869 17374.103357 18045.313582 18702.307685 19113.351445 19314.297717 19600.552797 19945.706914 20080.285924 20288.785465 20544.421928 20979.397769 21637.229420 22253.148247 22645.926002 23227.086933 23502.211360 23791.819922 23432.167723 22864.461848 22668.034938 22753.204814 22716.700129 22716.700129 22716.700129 0.004008 0.004008 0.004008 0.004246 0.006984 0.014476 0.024184 0.037575 0.056392 0.082980 0.120504 0.173195 0.246646 0.348173 0.487236 0.675922 0.929497 1.267012 1.711962 2.292999 3.044675 4.008204 5.232222 6.773511 8.697614 11.079265 14.002476 17.560079 21.852442 26.984967 33.063948 40.190261 48.450425 57.904605 68.571399 80.409555 93.297284 107.010464 121.201719 135.383056 148.915290 161.007778 170.731783 177.050151 178.864650 175.080572 164.686084 146.841749 120.974159 86.867481 44.749203 -4.626094 -59.873890 -118.800090 -178.010979 -232.026218 -271.337292 -278.603037 -223.909367 -68.830353 182.650683 426.622315 575.637162 654.486084 733.335004 890.703903 1202.085934 1668.130928 2182.332740 2671.242859 3137.861232 3618.350917 4187.533598 4948.830222 5932.319667 7059.535192 8259.587109 9458.515508 10559.140773 11424.572123 12017.358810 12635.318228 13439.906736 14328.559027 15193.632190 15950.257535 16623.315109 17273.921593 17922.495395 18512.437645 18941.918323 19251.683256 19578.923642 19924.701059 20214.976850 20542.299958 20907.106324 21352.559229 21864.990026 22296.299257 22582.592044 22840.771493 23116.399181 23239.766885 23073.876049 22862.461612 22757.576789 22700.144072 22687.525438 22687.525438 22687.525438 0.004008 0.004008 0.004008 0.004246 0.006984 0.014476 0.024184 0.037575 0.056392 0.082980 0.120504 0.173195 0.246646 0.348173 0.487236 0.675922 0.929497 1.267012 1.711962 2.292999 3.044675 4.008204 5.232222 6.773511 8.697614 11.079265 14.002476 17.560079 21.852442 26.984967 33.063948 40.190261 48.450425 57.904605 68.571399 80.409555 93.297284 107.010464 121.201719 135.383056 148.915290 161.007778 170.731783 177.050151 178.864650 175.080572 164.686084 146.841749 120.974159 86.867481 44.749203 -4.626094 -59.873890 -118.800090 -178.010979 -232.026218 -271.337292 -278.603037 -223.909367 -68.830353 182.650683 426.622315 575.637162 654.486084 733.335004 890.703903 1202.085934 1668.130928 2182.332740 2671.242859 3137.861232 3618.350917 4187.533598 4948.830222 5932.319667 7059.535192 8259.587109 9458.515508 10559.140773 11424.572123 12017.358810 12635.318228 13439.906736 14328.559027 15193.632190 15950.257535 16623.315109 17273.921593 17922.495395 18512.437645 18941.918323 19251.683256 19578.923642 19924.701059 20214.976850 20542.299958 20907.106324 21352.559229 21864.990026 22296.299257 22582.592044 22840.771493 23116.399181 23239.766885 23073.876049 22862.461612 22757.576789 22700.144072 22687.525438 22687.525438 22687.525438 0.004008 0.004008 0.004008 0.004246 0.006984 0.014476 0.024184 0.037575 0.056392 0.082980 0.120504 0.173195 0.246646 0.348173 0.487236 0.675922 0.929497 1.267012 1.711962 2.292999 3.044675 4.008204 5.232222 6.773511 8.697614 11.079265 14.002476 17.560079 21.852442 26.984967 33.063948 40.190261 48.450425 57.904605 68.571399 80.409555 93.297284 107.010464 121.201719 135.383056 148.915290 161.007778 170.731783 177.050151 178.864650 175.080572 164.686084 146.841749 120.974159 86.867481 44.749203 -4.626094 -59.873890 -118.800090 -178.010979 -232.026218 -271.337292 -278.603037 -223.909367 -68.830353 182.650683 426.622315 575.637162 654.486084 733.335004 890.703903 1202.085934 1668.130928 2182.332740 2671.242859 3137.861232 3618.350917 4187.533598 4948.830222 5932.319667 7059.535192 8259.587109 9458.515508 10559.140773 11424.572123 12017.358810 12635.318228 13439.906736 14328.559027 15193.632190 15950.257535 16623.315109 17273.921593 17922.495395 18512.437645 18941.918323 19251.683256 19578.923642 19924.701059 20214.976850 20542.299958 20907.106324 21352.559229 21864.990026 22296.299257 22582.592044 22840.771493 23116.399181 23239.766885 23073.876049 22862.461612 22757.576789 22700.144072 22687.525438 22687.525438 22687.525438 -1392.573517 -1456.155607 -1543.380776 -1668.901427 -1862.681894 -2199.377569 -2521.716929 -1243.282308 -51.590514 -823.662930 -1679.080587 -636.821257 876.606546 350.721945 -383.076826 -1141.003738 -1031.996694 857.279675 1086.575253 157.453673 -573.376127 -1391.286626 -2401.416236 -563.247788 1637.805669 -1343.044480 -3474.160806 3442.486740 5401.154605 2339.984744 670.135056 -1348.067755 -1482.872773 -253.774795 1934.782365 3441.441057 5318.279583 5505.489060 5764.976771 7260.724443 8172.309785 9644.127833 10335.200104 9832.820477 10131.894953 10842.646876 11860.512585 12287.003379 13257.515422 12530.762149 12434.113840 12782.902720 13260.310526 13340.275428 13340.275428 13340.275428 -2230.723863 -700.162533 2994.412278 13778.631970 14500.588213 13050.867014 10834.737980 12915.050063 15566.186217 9725.625445 13443.428186 16172.164918 15386.494591 12493.156962 13325.008740 14337.653036 12099.643704 11334.700597 14869.559688 13776.926205 13680.256419 12809.270701 11811.098667 12095.602460 12443.979395 13998.256346 12725.606050 13038.874581 13431.874799 14270.913882 11515.714815 13652.907175 12570.635907 14144.247915 13141.516970 14450.129109 14680.556081 13314.704589 14917.760500 14734.656030 14280.076686 12982.403097 12551.555089 11773.774520 14588.076538 13787.656318 12355.990622 11841.769664 11443.150250 13987.376520 15848.264568 13613.838322 13420.808167 13471.585185 13471.585185 13471.585185 84.823146 -1594.034901 14741.459060 5850.375343 18644.620170 13627.102161 15729.797760 10249.383945 13392.135607 13146.124222 14725.361631 12641.907000 12657.591723 14673.410159 13734.966942 14757.144790 14103.843367 13321.078356 14664.900368 11682.524574 15501.787755 11872.589121 12109.129365 14082.696815 13706.956006 12190.032285 14969.887462 15220.004915 13134.426347 11569.419909 11546.994674 10670.889131 12246.969092 13366.438320 13777.219377 9811.095950 14315.813740 12843.739801 10155.556781 12703.562956 11677.770377 12692.297214 9382.173520 12750.639807 10112.907501 11410.634370 12482.497899 12870.441831 11766.232178 14650.179165 12310.888821 14529.727429 13895.617971 13720.963651 13720.963651 13720.963651 1478.206029 3195.960241 13996.856448 14374.584136 17505.868420 14286.791219 14200.323488 14957.763955 14830.558023 13002.077597 15238.194010 12916.791595 15291.036401 15692.224728 13483.678566 16280.240152 15914.295541 14610.841111 15637.092295 14060.908117 13641.813215 13200.406642 11723.503474 12579.240881 13405.319484 13209.622884 16374.406173 16618.412050 12955.285230 12576.127773 12890.569848 13725