<VTKFile type="PolyData">
<PolyData>
<Piece NumberOfPoints="8632" NumberOfVerts="8632" NumberOfLines="0" NumberOfStrips="0" NumberOfPolys="0">
<PointData>
<DataArray type="Float64" Name="Pressure" format="ascii">
 -4.681020 -4.681020 -4.681020 -4.737270 -5.368320 -6.998797 -8.851228 -10.969929 -13.348312 -15.992925 -18.927720 -22.187079 -25.811385 -29.845034 -34.335665 -39.333903 -44.893274 -51.070185 -57.923890 -65.516443 -73.912613 -83.179751 -93.387617 -104.608158 -116.915224 -130.384243 -145.091828 -161.115335 -178.532367 -197.420218 -217.855271 -239.912342 -263.663984 -289.179731 -316.525309 -345.761781 -376.944636 -410.122801 -445.337559 -482.621349 -521.996448 -563.473502 -607.049954 -652.708391 -700.414927 -750.117788 -801.746278 -855.210332 -910.400568 -967.188021 -1025.420656 -1084.908717 -1145.379207 -1206.359090 -1266.927599 -1325.590833 -1380.805176 -1431.072516 -1473.330861 -1500.464419 -1498.265549 -1443.536106 -1311.711892 -1123.572080 -958.322195 -829.929539 -679.209609 -496.460632 -361.392436 -306.599013 -282.558029 -226.260051 -112.317104 -0.150858 38.546886 16.464365 -15.782509 -10.022107 74.735321 239.077348 412.075919 538.618982 645.129489 793.355821 1047.140963 1464.531574 2058.082633 2733.550597 3350.023204 3883.751463 4410.107320 4981.761704 5602.521233 6255.849423 6927.803683 7617.903624 8326.816153 9033.528102 9701.231307 10309.441303 10854.213749 11329.583319 11736.023006 12080.903389 12373.851383 12625.446305 12842.390349 12979.602939 13005.106370 13005.106370 13005.106370 -4.681020 -4.681020 -4.681020 -4.737270 -5.368320 -6.998797 -8.851228 -10.969929 -13.348312 -15.992925 -18.927720 -22.187079 -25.811385 -29.845034 -34.335665 -39.333903 -44.893274 -51.070185 -57.923890 -65.516443 -73.912613 -83.179751 -93.387617 -104.608158 -116.915224 -130.384243 -145.091828 -161.115335 -178.532367 -197.420218 -217.855271 -239.912342 -263.663984 -289.179731 -316.525309 -345.761781 -376.944636 -410.122801 -445.337559 -482.621349 -521.996448 -563.473502 -607.049954 -652.708391 -700.414927 -750.117788 -801.746278 -855.210332 -910.400568 -967.188021 -1025.420656 -1084.908717 -1145.379207 -1206.359090 -1266.927599 -1325.590833 -1380.805176 -1431.072516 -1473.330861 -1500.464419 -1498.265549 -1443.536106 -1311.711892 -1123.572080 -958.322195 -829.929539 -679.209609 -496.460632 -361.392436 -306.599013 -282.558029 -226.260051 -112.317104 -0.150858 38.546886 16.464365 -15.782509 -10.022107 74.735321 239.077348 412.075919 538.618982 645.129489 793.355821 1047.140963 1464.531574 2058.082633 2733.550597 3350.023204 3883.751463 4410.107320 4981.761704 5602.521233 6255.849423 6927.803683 7617.903624 8326.816153 9033.528102 9701.231307 10309.441303 10854.213749 11329.583319 11736.023006 12080.903389 12373.851383 12625.446305 12842.390349 12979.602939 13005.106370 13005.106370 13005.106370 -4.681020 -4.681020 -4.681020 -4.737270 -5.368320 -6.998797 -8.851228 -10.969929 -13.348312 -15.992925 -18.927720 -22.187079 -25.811385 -29.845034 -34.335665 -39.333903 -44.893274 -51.070185 -57.923890 -65.516443 -73.912613 -83.179751 -93.387617 -104.608158 -116.915224 -130.384243 -145.091828 -161.115335 -178.532367 -197.420218 -217.855271 -239.912342 -263.663984 -289.179731 -316.525309 -345.761781 -376.944636 -410.122801 -445.337559 -482.621349 -521.996448 -563.473502 -607.049954 -652.708391 -700.414927 -750.117788 -801.746278 -855.210332 -910.400568 -967.188021 -1025.420656 -1084.908717 -1145.379207 -1206.359090 -1266.927599 -1325.590833 -1380.805176 -1431.072516 -1473.330861 -1500.464419 -1498.265549 -1443.536106 -1311.711892 -1123.572080 -958.322195 -829.929539 -679.209609 -496.460632 -361.392436 -306.599013 -282.558029 -226.260051 -112.317104 -0.150858 38.546886 16.464365 -15.782509 -10.022107 74.735321 239.077348 412.075919 538.618982 645.129489 793.355821 1047.140963 1464.531574 2058.082633 2733.550597 3350.023204 3883.751463 4410.107320 4981.761704 5602.521233 6255.849423 6927.803683 7617.903624 8326.816153 9033.528102 9701.231307 10309.441303 10854.213749 11329.583319 11736.023006 12080.903389 12373.851383 12625.446305 12842.390349 12979.602939 13005.106370 13005.106370 13005.106370 -4.659406 -4.659406 -4.659406 -4.714580 -5.340979 -6.960490 -8.817187 -10.948962 -13.336866 -15.985683 -18.921890 -22.181437 -25.805414 -29.838506 -34.328467 -39.325965 -44.884544 -51.060618 -57.913444 -65.505079 -73.900292 -83.166438 -93.373281 -104.592770 -116.898761 -130.366686 -145.073165 -161.095561 -178.511484 -197.398237 -217.832211 -239.888233 -263.638865 -289.153654 -316.498336 -345.733988 -376.916112 -410.093651 -445.307903 -482.591329 -521.966225 -563.443264 -607.019916 -652.678804 -700.386096 -750.090108 -801.720348 -855.187232 -910.382599 -967.180575 -1025.436939 -1084.981306 -1145.586255 -1206.872290 -1267.968312 -1327.236719 -1383.026092 -1434.481818 -1479.335096 -1511.584959 -1518.990173 -1476.876777 -1331.084283 -1100.556089 -952.378845 -841.692486 -699.539790 -475.414226 -336.036690 -296.104627 -293.262142 -248.012827 -112.692656 31.018143 61.142507 21.947337 -27.491906 -37.607463 44.719092 234.255413 427.224509 543.690148 626.501230 746.428440 967.572164 1360.951415 1973.429575 2716.933677 3367.418127 3888.271196 4398.747832 4965.365348 5586.696527 6239.193512 6905.452767 7592.318415 8311.561073 9041.325606 9724.886705 10335.828252 10883.461554 11358.738786 11762.161200 12101.133557 12386.460741 12636.818972 12853.847952 12985.483203 13009.410218 13009.410218 13009.410218 -4.424713 -4.424713 -4.424713 -4.468343 -5.008104 -6.451784 -8.378886 -10.726445 -13.221686 -15.913914 -18.863981 -22.125204 -25.745804 -29.773295 -34.256539 -39.246636 -44.797296 -50.965001 -57.809040 -65.391490 -73.777142 -83.033376 -93.229987 -104.438961 -116.734200 -130.191190 -144.886611 -160.897895 -178.302729 -197.178499 -217.601687 -239.647218 -263.387756 -288.892959 -316.228682 -345.456129 -376.630940 -409.802210 -445.011406 -482.291179 -521.664041 -563.140911 -606.719547 -652.382929 -700.097739 -749.813200 -801.460769 -854.955557 -910.201211 -967.101893 -1025.589572 -1085.685350 -1147.633702 -1212.111916 -1280.489331 -1347.461450 -1407.860324 -1471.494307 -1544.389798 -1632.602718 -1746.996119 -1875.167176 -1566.522766 -703.789302 -702.977217 -1029.438010 -1017.870947 -160.540837 110.801431 -173.976031 -429.655279 -633.037869 -137.918844 514.302094 352.587049 84.915803 -164.938908 -380.809508 -445.619385 194.049289 739.445022 632.147452 430.873330 231.624872 40.052871 -13.010365 709.187576 2427.965319 3635.681965 3950.312184 4250.743683 4788.718958 5451.626497 6116.772248 6702.585523 7308.159535 8136.021610 9181.837482 10076.167199 10668.729699 11244.251794 11745.312132 12124.106713 12369.559666 12520.450573 12777.002757 13049.112010 13081.892505 13066.816384 13066.816384 13066.816384 -4.089665 -4.089665 -4.089665 -4.123729 -4.515627 -5.551902 -7.420920 -10.339076 -13.055486 -15.820024 -18.793580 -22.059554 -25.677410 -29.698961 -34.174738 -39.156486 -44.698171 -50.856372 -57.690424 -65.262433 -73.637214 -82.882176 -93.067149 -104.264163 -116.547172 -129.991722 -144.674562 -160.673203 -178.065419 -196.928689 -217.339601 -239.373188 -263.102234 -288.596522 -315.922040 -345.140138 -376.306612 -409.470728 -444.674147 -481.949737 -521.320256 -562.796913 -606.377812 -652.046387 -699.770019 -749.499252 -801.168464 -854.699867 -910.014964 -967.063256 -1025.892058 -1086.817336 -1150.851128 -1220.830437 -1304.650902 -1378.831233 -1438.545415 -1514.872689 -1620.475139 -1774.730007 -2014.369828 -2478.166647 -2267.819828 -552.793275 -366.877160 -1326.370941 -1539.529402 206.201367 764.687633 -3.886581 -642.539241 -1240.813802 -215.761852 1212.242336 773.431443 164.469495 -335.703307 -930.957471 -1401.501447 199.556805 1495.742231 840.276920 213.123056 -374.644226 -1117.915220 -2089.916404 -3163.982281 1235.720838 4539.193735 3873.029793 3956.779705 4628.160385 5511.158058 6381.592398 6717.439643 7006.639175 7642.024226 9536.062336 11176.622726 11030.361491 11837.009511 12512.926090 12911.201924 12887.376122 12398.412007 12787.019304 13638.423055 13272.380097 13177.571482 13177.571482 13177.571482 -4.041991 -4.041991 -4.041991 -4.074717 -4.447809 -5.409401 -3.709292 -3.709292 -3.709292 -3.730706 -3.973869 -4.504483 -3.190023 -3.190023 -3.190023 -3.199526 -3.300822 -3.472761 -2.717515 -2.717515 -2.717515 -2.721112 -2.756691 -2.815570 -2.302046 -2.302046 -2.302046 -2.303025 -2.312389 -2.329738 -1.942484 -1.942484 -1.942484 -1.942462 -1.942044 -1.944146 -1.634048 -1.634048 -1.634048 -1.633685 -1.629978 -1.626777 -1.370888 -1.370888 -1.370888 -1.370441 -1.365936 -1.361222 -1.147215 -1.147215 -1.147215 -1.146777 -1.142392 -1.137574 -0.957692 -0.957692 -0.957692 -0.957295 -0.953333 -0.948901 -0.797550 -0.797550 -0.797550 -0.797203 -0.793733 -0.789825 -0.662591 -0.662591 -0.662591 -0.662291 -0.659299 -0.655918 -0.549147 -0.549147 -0.549147 -0.548891 -0.546331 -0.543435 -0.454031 -0.454031 -0.454031 -0.453813 -0.451635 -0.449169 -0.374484 -0.374484 -0.374484 -0.374299 -0.372452 -0.370362 -0.308126 -0.308126 -0.308126 -0.307970 -0.306410 -0.304643 -0.252911 -0.252911 -0.252911 -0.252780 -0.251465 -0.249977 -0.207086 -0.207086 -0.207086 -0.206975 -0.205871 -0.204621 -0.169149 -0.169149 -0.169149 -0.169057 -0.168132 -0.167084 -0.137824 -0.137824 -0.137824 -0.137747 -0.136974 -0.136099 -0.112025 -0.112025 -0.112025 -0.111960 -0.111316 -0.110587 -0.090830 -0.090830 -0.090830 -0.090777 -0.090242 -0.089636 -0.073464 -0.073464 -0.073464 -0.073420 -0.072976 -0.072475 -0.059271 -0.059271 -0.059271 -0.059234 -0.058868 -0.058453 -0.047702 -0.047702 -0.047702 -0.047671 -0.047369 -0.047028 -0.038295 -0.038295 -0.038295 -0.038270 -0.038022 -0.037741 -0.030667 -0.030667 -0.030667 -0.030646 -0.030443 -0.030213 -0.024497 -0.024497 -0.024497 -0.024480 -0.024314 -0.024126 -0.019519 -0.019519 -0.019519 -0.019505 -0.019370 -0.019217 -0.015514 -0.015514 -0.015514 -0.015503 -0.015393 -0.015268 -0.012300 -0.012300 -0.012300 -0.012291 -0.012201 -0.012100 -0.009727 -0.009727 -0.009727 -0.009719 -0.009647 -0.009566 -0.007673 -0.007673 -0.007673 -0.007667 -0.007609 -0.007543 -0.006037 -0.006037 -0.006037 -0.006032 -0.005986 -0.005933 -0.004738 -0.004738 -0.004738 -0.004734 -0.004697 -0.004654 -0.003709 -0.003709 -0.003709 -0.003706 -0.003676 -0.003642 -0.002896 -0.002896 -0.002896 -0.002894 -0.002870 -0.002843 -0.002256 -0.002256 -0.002256 -0.002254 -0.002235 -0.002214 -0.001753 -0.001753 -0.001753 -0.001751 -0.001736 -0.001719 -0.001358 -0.001358 -0.001358 -0.001357 -0.001345 -0.001332 -0.001050 -0.001050 -0.001050 -0.001049 -0.001039 -0.001029 -0.000809 -0.000809 -0.000809 -0.000809 -0.000801 -0.000793 -0.000622 -0.000622 -0.000622 -0.000622 -0.000616 -0.000609 -0.000477 -0.000477 -0.000477 -0.000477 -0.000472 -0.000467 -0.000365 -0.000365 -0.000365 -0.000365 -0.000361 -0.000357 -0.000279 -0.000279 -0.000279 -0.000278 -0.000276 -0.000273 -0.000212 -0.000212 -0.000212 -0.000212 -0.000210 -0.000207 -0.000161 -0.000161 -0.000161 -0.000161 -0.000159 -0.000157 -0.000122 -0.000122 -0.000122 -0.000122 -0.000121 -0.000119 -0.000092 -0.000092 -0.000092 -0.000092 -0.000091 -0.000090 -0.000069 -0.000069 -0.000069 -0.000069 -0.000069 -0.000068 -0.000052 -0.000052 -0.000052 -0.000052 -0.000052 -0.000051 -0.000039 -0.000039 -0.000039 -0.000039 -0.000039 -0.000038 -0.000029 -0.000029 -0.000029 -0.000029 -0.000029 -0.000028 -0.000022 -0.000022 -0.000022 -0.000022 -0.000022 -0.000021 -0.000016 -0.000016 -0.000016 -0.000016 -0.000016 -0.000016 -0.000012 -0.000012 -0.000012 -0.000012 -0.000012 -0.000012 -0.000009 -0.000009 -0.000009 -0.000009 -0.000009 -0.000009 -0.000007 -0.000007 -0.000007 -0.000007 -0.000006 -0.000006 -0.000005 -0.000005 -0.000005 -0.000005 -0.000005 -0.000005 -0.000004 -0.000004 -0.000004 -0.000004 -0.000004 -0.000003 -0.000003 -0.000003 -0.000003 -0.000003 -0.000003 -0.000003 -0.000002 -0.000002 -0.000002 -0.000002 -0.000002 -0.000002 -0.000001 -0.000001 -0.000001 -0.000001 -0.000001 -0.000001 -0.000001 -0.000001 -0.000001 -0.000001 -0.000001 -0.000001 -0.000001 -0.000001 -0.000001 -0.000001 -0.000001 -0.000001 -0.000001 -0.000001 -0.000001 -0.000001 -0.000001 -0.000001 -0.000000 -0.000000 -0.000000 -0.000000 -0.000000 -0.000000 -0.000000 -0.000000 -0.000000 -0.000000 -0.000000 -0.000000 -0.000000 -0.000000 -0.000000 -0.000000 -0.000000 -0.000000 -0.000000 -0.000000 -0.000000 -0.000000 -0.000000 -0.000000 -0.000000 -0.000000 -0.000000 -0.000000 -0.000000 -0.000000 -0.000000 -0.000000 -0.000000 -0.000000 -0.000000 -0.000000 -0.000000 -0.000000 -0.000000 -0.000000 -0.000000 -0.000000 -0.000000 -0.000000 -0.000000 -0.000000 -0.000000 -0.000000 -0.000000 -0.000000 -0.000000 -0.000000 -0.000000 -0.000000 -0.000000 -0.000000 -0.000000 -0.000000 -0.000000 -0.000000 -0.000000 -0.000000 -0.000000 -0.000000 -0.000000 -0.000000 -0.000000 -0.000000 -0.000000 -0.000000 -0.000000 -0.000000 -0.000000 -0.000000 -0.000000 -0.000000 -0.000000 -0.000000 -0.000000 -0.000000 -0.000000 -0.000000 -0.000000 -0.000000 -0.000000 -0.000000 -0.000000 -0.000000 -0.000000 -0.000000 -0.000000 -0.000000 -0.000000 -0.000000 -0.000000 -0.000000 -0.000000 -0.000000 -0.000000 -0.000000 -0.000000 -0.000000 -0.000000 -0.000000 -0.000000 -0.000000 -0.000000 -0.000000 -0.000000 -0.000000 -0.000000 -0.000000 -0.000000 -0.000000 -0.000000 -0.000000 -0.000000 -0.000000 -0.000000 -0.000000 -0.000000 -0.000000 -0.000000 -0.000000 -0.000000 -0.000000 -0.000000 -0.000000 -0.000000 -0.000000 -0.000000 -0.000000 -0.000000 -0.000000 -0.000000 -0.000000 -0.000000 -0.000000 -0.000000 -0.000000 -0.000000 -0.000000 -0.000000 -0.000000 -0.000000 -0.000000 -0.000000 -0.000000 -0.000000 -0.000000 -0.000000 -0.000000 -0.000000 -0.000000 -0.000000 -0.000000 -0.000000 -0.000000 -0.000000 -0.000000 -0.000000 -0.000000 -0.000000 -0.000000 -0.000000 -0.000000 -0.000000 -0.000000 -0.000000 -0.000000 -0.000000 -0.000000 -0.000000 -0.000000 -0.000000 -0.000000 -0.000000 -0.000000 -0.000000 -0.000000 -0.000000 -0.000000 -0.000000 -0.000000 -0.000000 -0.000000 -0.000000 -0.000000 -0.000000 -0.000000 -0.000000 -0.000000 -0.000000 -0.000000 -0.000000 -0.000000 -0.000000 -0.000000 -0.000000 -0.000000 -0.000000 -0.000000 -0.000000 -0.000000 -0.000000 -0.000000 -0.000000 -0.000000 -0.000000 -0.000000 -0.000000 -0.000000 -0.000000 -0.000000 -0.000000 -0.000000 -0.000000 -0.000000 -0.000000 -0.000000 -0.000000 -0.000000 -0.000000 -0.000000 -0.000000 -0.000000 -0.000000 -0.000000 -0.000000 -0.000000 -0.000000 -0.000000 -0.000000 -0.000000 -0.000000 -0.000000 -0.000000 -0.000000 -0.000000 -0.000000 -0.000000 -0.000000 -0.000000 -0.000000 -0.000000 -0.000000 -0.000000 -0.000000 -0.000000 -0.000000 -0.000000 -0.000000 -0.000000 -0.000000 -0.000000 -0.000000 -0.000000 -0.000000 -0.000000 -0.000000 -0.000000 -0.000000 -0.000000 -0.000000 -0.000000 -0.000000 -0.000000 -0.000000 -0.000000 -0.000000 -0.000000 -0.000000 -0.000000 -0.000000 -0.000000 -0.000000 -0.000000 -0.000000 -0.000000 -0.000000 -0.000000 -0.000000 -0.000000 -0.000000 -0.000000 -0.000000 -0.000000 -0.000000 -0.000000 -0.000000 -0.000000 -0.000000 -0.000000 -0.000000 -0.000000 -0.000000 -0.000000 -0.000000 -0.000000 -0.000000 -0.000000 -0.000000 -0.000000 -0.000000 -0.000000 -0.000000 -0.000000 -0.000000 -0.000000 -0.000000 -0.000000 -0.000000 -0.000000 -0.000000 -0.000000 -0.000000 -0.000000 -0.000000 -0.000000 -0.000000 -0.000000 -0.000000 -0.000000 -0.000000 -0.000000 -0.000000 -0.000000 -0.000000 -0.000000 -0.000000 -0.000000 -0.000000 -0.000000 -0.000000 -0.000000 -0.000000 -0.000000 -0.000000 -0.000000 -0.000000 -0.000000 -0.000000 -0.000000 -0.000000 -0.000000 -0.000000 -0.000000 -0.000000 -0.000000 -0.000000 -0.000000 -0.000000 -0.000000 -0.000000 -0.000000 -0.000000 -0.000000 -0.000000 -0.000000 -0.000000 -0.000000 -0.000000 -0.000000 -0.000000 -0.000000 -0.000000 -0.000000 -0.000000 -0.000000 -0.000000 -0.000000 -0.000000 -0.000000 -0.000000 -0.000000 -0.000000 -0.000000 -0.000000 -0.000000 -0.000000 -0.000000 -0.000000 -0.000000 -0.000000 -0.000000 -0.000000 -0.000000 -0.000000 -0.000000 -0.000000 -0.000000 -0.000000 -0.000000 -0.000000 -0.000000 -0.000000 -0.000000 -0.000000 -0.000000 -0.000000 -0.000000 -0.000000 -0.000000 -0.000000 -0.000000 -0.000000 -0.000000 -0.000000 -0.000000 -0.000000 -0.000000 -0.000000 -0.000000 -0.000000 -0.000000 -0.000000 -0.000000 -0.000000 -0.000000 -0.000000 -0.000000 -0.000000 -0.000000 -0.000000 -0.000000 -0.000000 -0.000000 -0.000000 -0.000000 -0.000000 -0.000000 -0.000000 -0.000000 -0.000000 -0.000000 -0.000000 -0.000000 -0.000000 -0.000000 -0.000000 -0.000000 -0.000000 -0.000000 -0.000000 -0.000000 -0.000000 -0.000000 -0.000000 -0.000000 -0.000000 -0.000000 -0.000000 -0.000000 -0.000000 -0.000000 -0.000000 -0.000000 -0.000000 -0.000000 -0.000000 -0.000000 -0.000000 -0.000000 -0.000000 -0.000000 -0.000000 -0.000000 -0.000000 -0.000000 -0.000000 -0.000000 -0.000000 -0.000000 -0.000000 -0.000000 -0.000000 -0.000000 -0.000000 -0.000000 -0.000000 -0.000000 -0.000000 -0.000000 -0.000000 -0.000000 -0.000000 -0.000000 -0.000000 -0.000000 -0.000000 -0.000000 -0.000000 -0.000000 -0.000000 -0.000000 -0.000000 -0.000000 -0.000000 -0.000000 -0.000000 -0.000000 -0.000000 -0.000000 -0.000000 -0.000000 -0.000000 -0.000000 -0.000000 -0.000000 -0.000000 -0.000000 -0.000000 -0.000000 -0.000000 -0.000000 -0.000000 -0.000000 -0.000000 -0.000000 -0.000000 -0.000000 -0.000000 -0.000000 -0.000000 -0.000000 -0.000000 -0.000000 -0.000000 -0.000000 -0.000000 -0.000000 -0.000000 -0.000000 -0.000000 -0.000000 -0.000000 -0.000000 -0.000000 -0.000000 -0.000000 -0.000000 -0.000000 -0.000000 -0.000000 -0.000000 -0.000000 -0.000000 -0.000000 -0.000000 -0.000000 -0.000000 -0.000000 -0.000000 -0.000000 -0.000000 -0.000000 -0.000000 -0.000000 -0.000000 -0.000000 -0.000000 -0.000000 -0.000000 -0.000000 -0.000000 -0.000000 -0.000000 -0.000000 -0.000000 -0.000000 -0.000000 -0.000000 -0.000000 -0.000000 -0.000000 -0.000000 -0.000000 -0.000000 -0.000000 -0.000000 -0.000000 -0.000000 -0.000000 -0.000000 -0.000000 -0.000000 -0.000000 -0.000000 -0.000000 -0.000000 -0.000000 -0.000000 -0.000000 -0.000000 -0.000000 -0.000000 -0.000000 -0.000000 -0.000000 -0.000000 -0.000000 -0.000000 -0.000000 -0.000000 -0.000000 -0.000000 -0.000000 -0.000000 -0.000000 -0.000000 -0.000000 -0.000000 -0.000000 -0.000000 -0.000000 -0.000000 -0.000000 -0.000000 0.000000 0.000000 0.000000 0.000000 0.000000 0.000000 0.000000 0.000000 0.000000 0.000000 0.000000 0.000000 0.000000 0.000000 0.000000 0.000000 0.000000 0.000000 0.000000 0.000000 0.000000 0.000000 0.000000 0.000000 0.000001 0.000001 0.000001 0.000001 0.000001 0.000001 0.000001 0.000001 0.000001 0.000001 0.000001 0.000001 0.000002 0.000002 0.000002 0.000002 0.000002 0.000001 0.000002 0.000002 0.000002 0.000002 0.000002 0.000002 0.000004 0.000004 0.000004 0.000004 0.000004 0.000004 0.000006 0.000006 0.000006 0.000006 0.000006 0.000006 0.000009 0.000009 0.000009 0.000009 0.000009 0.000009 0.000014 0.000014 0.000014 0.000014 0.000014 0.000014 0.000022 0.000022 0.000022 0.000022 0.000021 0.000021 0.000033 0.000033 0.000033 0.000033 0.000032 0.000031 0.000050 0.000050 0.000050 0.000050 0.000049 0.000047 0.000075 0.000075 0.000075 0.000075 0.000073 0.000071 0.000113 0.000113 0.000113 0.000112 0.000110 0.000107 0.000169 0.000169 0.000169 0.000168 0.000165 0.000161 0.000252 0.000252 0.000252 0.000252 0.000246 0.000240 0.000375 0.000375 0.000375 0.000375 0.000367 0.000359 0.000557 0.000557 0.000557 0.000556 0.000546 0.000534 0.000825 0.000825 0.000825 0.000823 0.000809 0.000794 0.001215 0.001215 0.001215 0.001214 0.001196 0.001180 0.001783 0.001783 0.001783 0.001781 0.001765 0.001755 0.002600 0.002600 0.002600 0.002600 0.002602 0.002624 0.003766 0.003766 0.003766 0.003774 0.003842 0.003970 0.005404 0.005404 0.005404 0.005432 0.005704 0.006153 0.007646 0.007646 0.007646 0.007730 0.008572 0.009948 0.010586 0.010586 0.010586 0.010800 0.013111 0.017222 0.014177 0.014177 0.014177 0.014625 0.019842 0.033349 0.018160 0.018160 0.018160 0.018887 0.027800 0.053744 0.096920 0.157278 0.228131 0.318195 0.435389 0.588539 0.788170 1.047030 1.380556 1.807328 2.349518 3.033334 3.889423 4.953203 6.265080 7.870477 9.819602 12.166853 14.969753 18.287287 22.177512 26.694320 31.883254 37.776321 44.385807 51.697200 59.661443 68.186866 77.131317 86.295150 95.415860 104.165260 112.150109 118.917068 123.962675 126.748777 126.723423 123.346705 116.120363 104.619166 88.521105 67.632172 41.899471 11.402852 -23.692300 -63.255019 -107.452902 -157.316961 -215.956684 -291.214227 -401.562078 -589.797876 -953.696882 -1804.808031 -2847.400883 285.753215 3041.785290 1634.245180 625.364561 -260.941833 -2007.209970 -2173.193884 2367.268620 3511.646662 2531.981170 2204.525752 1921.094417 1477.975659 648.285577 -1126.463060 -3416.250728 1109.394873 5933.498254 5482.723154 6265.836689 9966.335484 13117.852462 19996.306426 22065.464115 14369.948277 13642.444375 19907.947265 18660.252653 12389.209726 10517.802526 12686.588079 11099.492264 13316.716873 12885.924083 13347.255568 15294.115035 16678.836198 17825.823520 19683.649384 17317.581109 16549.938136 17142.412972 17972.377462 15718.696547 16986.663926 20540.971933 20802.631090 20497.614967 20497.614967 20497.614967 0.022273 0.022273 0.022273 0.023206 0.034799 0.066492 0.108057 0.162421 0.232211 0.322646 0.440840 0.595419 0.796876 1.057986 1.394235 1.824265 2.370310 3.058639 3.919947 4.989685 6.308265 7.921079 9.878248 12.234016 15.045663 18.371823 22.270078 26.793703 31.987476 37.882490 44.489981 51.794290 59.745159 68.249746 77.164851 86.290021 95.362320 104.053637 111.971453 118.663897 123.629801 126.334150 126.228950 122.779001 115.491438 103.947202 87.831787 66.961750 41.302401 10.970478 -23.787268 -62.655062 -105.378830 -152.031013 -203.551951 -262.879790 -337.300711 -442.836201 -609.676570 -841.170379 -997.697157 208.054792 1260.034128 978.781016 639.084958 260.461837 -171.917232 -34.253849 1587.439784 2296.277848 2275.427916 2213.842553 2128.863920 1960.947562 1649.066627 1228.739970 993.853422 2715.018862 4675.281207 5278.102767 6220.556236 8015.714757 9951.136538 11689.784029 12956.769422 12611.925379 12655.377605 14162.061571 14450.655249 13367.724054 12699.317113 13293.677788 12755.143606 13647.258934 13885.332968 13983.358288 14851.190703 16388.517898 16956.920849 18169.003150 16769.384905 15895.792551 16531.953819 18868.851194 19819.374883 18899.313415 20023.112563 20759.154916 20877.514637 20877.514637 20877.514637 0.024669 0.024669 0.024669 0.025744 0.038355 0.072057 0.113559 0.167026 0.236609 0.327685 0.447091 0.603335 0.806900 1.070597 1.409976 1.843747 2.394216 3.087719 3.955008 5.031570 6.357822 7.979116 9.945474 12.310959 15.132570 18.468539 22.375898 26.907218 32.106398 38.003487 44.608526 51.904545 59.839927 68.320499 77.201880 86.282712 95.299584 103.924493 111.765759 118.373201 123.248271 125.859530 125.663466 122.130172 114.772776 103.178920 87.041934 66.188868 40.602334 10.433426 -23.995678 -62.197673 -103.526406 -147.162697 -192.034626 -236.578392 -278.132928 -311.434374 -324.283796 -286.387613 -121.952358 208.661011 514.386030 641.025634 663.950087 676.928034 762.529644 1037.075918 1484.952794 1866.520739 2093.464254 2227.717685 2317.243687 2392.359727 2494.800953 2699.177565 3144.209777 3908.181733 4729.784317 5410.740544 6111.317898 6984.640151 7974.256082 8992.200724 9943.325100 10728.055910 11507.354966 12308.019035 12916.157268 13335.909424 13731.256756 14127.903204 14459.560359 14773.462374 14990.132752 15215.175566 15591.428619 16023.316150 16369.941351 16566.281190 16558.532322 16665.410199 17105.488289 17910.705979 18814.968455 19240.575162 20143.105477 20950.414271 21127.650016 21127.650016 21127.650016 0.025011 0.025011 0.025011 0.026127 0.038840 0.072758 0.114325 0.167760 0.237374 0.328583 0.448212 0.604758 0.808702 1.072865 1.412807 1.847249 2.398512 3.092944 3.961305 5.039091 6.366718 7.989531 9.957534 12.324757 15.148150 18.485869 22.394852 26.927539 32.127675 38.025119 44.629701 51.924216 59.856803 68.333054 77.208376 86.281253 95.288188 103.901203 111.728766 118.321003 123.179834 125.774458 125.562163 122.013979 114.644093 103.041310 86.900290 66.049803 40.475212 10.332986 -24.042940 -62.138491 -103.246243 -146.407608 -190.236576 -232.471383 -268.943336 -291.380881 -283.247883 -214.782358 -47.880686 211.090323 455.518576 599.376345 669.157304 734.488545 869.128062 1132.224172 1494.985095 1830.888508 2070.854756 2230.340968 2346.237482 2458.151223 2618.314320 2899.341400 3378.563402 4055.287965 4781.092168 5449.272554 6128.201716 6915.426675 7814.332405 8767.844165 9700.697901 10555.559773 11366.425620 12132.537427 12785.879230 13329.095868 13816.983028 14262.444124 14637.922524 14944.034610 15173.904187 15405.146869 15713.187406 16053.826814 16343.596181 16542.991937 16665.736774 16858.440876 17247.147578 17849.923452 18559.651581 19302.823290 20214.184984 20997.099582 21163.841866 21163.841866 21163.841866 0.025011 0.025011 0.025011 0.026127 0.038840 0.072758 0.114325 0.167760 0.237374 0.328583 0.448212 0.604758 0.808702 1.072865 1.412807 1.847249 2.398512 3.092944 3.961305 5.039091 6.366718 7.989531 9.957534 12.324757 15.148150 18.485869 22.394852 26.927539 32.127675 38.025119 44.629701 51.924216 59.856803 68.333054 77.208376 86.281253 95.288188 103.901203 111.728766 118.321003 123.179834 125.774458 125.562163 122.013979 114.644093 103.041310 86.900290 66.049803 40.475212 10.332986 -24.042940 -62.138491 -103.246243 -146.407608 -190.236576 -232.471383 -268.943336 -291.380881 -283.247883 -214.782358 -47.880686 211.090323 455.518576 599.376345 669.157304 734.488545 869.128062 1132.224172 1494.985095 1830.888508 2070.854756 2230.340968 2346.237482 2458.151223 2618.314320 2899.341400 3378.563402 4055.287965 4781.092168 5449.272554 6128.201716 6915.426675 7814.332405 8767.844165 9700.697901 10555.559773 11366.425620 12132.537427 12785.879230 13329.095868 13816.983028 14262.444124 14637.922524 14944.034610 15173.904187 15405.146869 15713.187406 16053.826814 16343.596181 16542.991937 16665.736774 16858.440876 17247.147578 17849.923452 18559.651581 19302.823290 20214.184984 20997.099582 21163.841866 21163.841866 21163.841866 0.025011 0.025011 0.025011 0.026127 0.038840 0.072758 0.114325 0.167760 0.237374 0.328583 0.448212 0.604758 0.808702 1.072865 1.412807 1.847249 2.398512 3.092944 3.961305 5.039091 6.366718 7.989531 9.957534 12.324757 15.148150 18.485869 22.394852 26.927539 32.127675 38.025119 44.629701 51.924216 59.856803 68.333054 77.208376 86.281253 95.288188 103.901203 111.728766 118.321003 123.179834 125.774458 125.562163 122.013979 114.644093 103.041310 86.900290 66.049803 40.475212 10.332986 -24.042940 -62.138491 -103.246243 -146.407608 -190.236576 -232.471383 -268.943336 -291.380881 -283.247883 -214.782358 -47.880686 211.090323 455.518576 599.376345 669.157304 734.488545 869.128062 1132.224172 1494.985095 1830.888508 2070.854756 2230.340968 2346.237482 2458.151223 2618.314320 2899.341400 3378.563402 4055.287965 4781.092168 5449.272554 6128.201716 6915.426675 7814.332405 8767.844165 9700.697901 10555.559773 11366.425620 12132.537427 12785.879230 13329.095868 13816.983028 14262.444124 14637.922524 14944.034610 15173.904187 15405.146869 15713.187406 16053.826814 16343.596181 16542.991937 16665.736774 16858.440876 17247.147578 17849.923452 18559.651581 19302.823290 20214.184984 20997.099582 21163.841866 21163.841866 21163.841866 -1393.915709 -1454.531386 -1537.040599 -1653.273708 -1827.151532 -2109.059557 -2649.450073 -2136.417326 -406.116791 -529.877384 -1524.304720 -1346.507527 526.777923 659.971505 -132.406333 -810.106305 -1241.967777 195.286041 1295.091308 651.517629 64.651878 -455.237048 -1152.350647 -1357.039855 684.945988 1529.288374 703.991193 75.325326 -559.765499 -1398.921801 -3140.090821 -4035.839944 2662.509306 4899.674646 3785.439431 4185.180060 4876.820637 5859.855811 6621.346515 6914.016885 7048.276454 7901.583154 10163.546809 11475.680077 11065.246437 12216.082690 12732.095366 13107.551471 12921.154555 12319.667612 13097.288266 13742.479976 13268.351747 13199.710424 13199.710424 13199.710424 -566.571013 -333.934756 4634.489806 7517.364957 13054.459309 12966.411389 16264.858761 14805.119837 13894.653488 12959.043232 14542.310237 13837.711321 12270.815469 11903.108121 13897.452328 12608.000761 13225.527847 13675.236440 11529.855198 10057.800293 12783.966088 14397.327086 12391.313264 13856.421479 12995.146061 11856.701925 12061.904270 13712.036993 12880.299235 13742.874741 12383.005217 12982.780717 12755.428809 14541.777793 13805.791051 15978.967705 13191.042142 14902.588774 12802.507342 14321.146229 15956.397655 14374.639843 12636.703203 12511.165329 13050.752231 12618.827930 11403.603052 13268.920636 12592.276467 11227.720181 15556.147169 14006.590047 13401.609539 13360.336827 13360.336827 13360.336827 45.353133 10496.562988 14324.533967 5375.828439 10676.292506 14207.065489 16449.872374 13288.264879 13723.200100 14320.155885 13529.479733 13087.748693 9422.429774 13118.609128 12134.639462 12693.474618 12997.313249 12445.132326 13359.102610 13143.405708 15508.708347 12031.017749 13022.255376 15099.221300 15238.824113 11842.662623 13969.267929 11696.954788 13226.508764 11875.689483 10592.617678 12182.733782 12318.013240 12615.961644 14296.137858 11816.101306 13493.280695 12057.387551 11652.784894 13549.321452 12153.474093 11643.124280 10097.323500 13456.792617 10904.929773 11330.371690 12659.201788 11711.960491 10859.217376 15649.096828 13255.205450 12239.443623 13331.595588 13568.541266 13568.541266 13568.541266 342.197563 2143.213815 14803.059961 16680.388362 11383.748978 14494.703302 10484.813580 16245.942460 12922.004435 13007.855200 10994.663329 13438.325035 13815.831948 13529.313352 13195.514904 13352.978837 15025.258866 11657.266513 11345.525009 8583.068287 14136.827550 12133.732308 9828.740235 14975.136654 13425.224663 12152.852660 15162.134278 13360.482106 13486.972431 13892.330103 11623.270544 12592.347326 12481.549635 13987.117370 13400.558057 10624.027463 14112.031572 12257.286321 11744.272898 9809.