<VTKFile type="PolyData">
<PolyData>
<Piece NumberOfPoints="8632" NumberOfVerts="8632" NumberOfLines="0" NumberOfStrips="0" NumberOfPolys="0">
<PointData>
<DataArray type="Float64" Name="Pressure" format="ascii">
 -0.051056 -0.051056 -0.051056 -0.053025 -0.075414 -0.135182 -0.208136 -0.300338 -0.416992 -0.564918 -0.753001 -0.992291 -1.296242 -1.681076 -2.166225 -2.774827 -3.534260 -4.476707 -5.639732 -7.066869 -8.808203 -10.920933 -13.469902 -16.528078 -20.176970 -24.506970 -29.617601 -35.617673 -42.625323 -50.767948 -60.182024 -71.012799 -83.413872 -97.546650 -113.579664 -131.687756 -152.051101 -174.854038 -200.283684 -228.528264 -259.775094 -294.208109 -332.004813 -373.332471 -418.343321 -467.168520 -519.910424 -576.632597 -637.346316 -701.990590 -770.397791 -842.224102 -916.791714 -992.722796 -1067.131555 -1134.582799 -1186.851784 -1211.712185 -1187.832243 -1085.256838 -909.733378 -740.883116 -619.748364 -493.566218 -337.115622 -226.190445 -205.865815 -222.974392 -204.224666 -129.718788 -70.381989 -78.021497 -97.731033 -56.407620 29.008681 76.013303 93.290824 153.146715 246.934059 288.624358 267.083808 255.331974 324.976491 465.900972 587.242076 656.854995 739.598597 920.885496 1218.632839 1552.029585 1854.324496 2150.037343 2508.208512 2986.362884 3595.222067 4294.456893 5034.663165 5781.346863 6514.509606 7246.616732 7990.274378 8713.054463 9353.346329 9896.762193 10390.791914 10873.861840 11335.072361 11637.968855 11694.263469 11694.263469 11694.263469 -0.051056 -0.051056 -0.051056 -0.053025 -0.075414 -0.135182 -0.208136 -0.300338 -0.416992 -0.564918 -0.753001 -0.992291 -1.296242 -1.681076 -2.166225 -2.774827 -3.534260 -4.476707 -5.639732 -7.066869 -8.808203 -10.920933 -13.469902 -16.528078 -20.176970 -24.506970 -29.617601 -35.617673 -42.625323 -50.767948 -60.182024 -71.012799 -83.413872 -97.546650 -113.579664 -131.687756 -152.051101 -174.854038 -200.283684 -228.528264 -259.775094 -294.208109 -332.004813 -373.332471 -418.343321 -467.168520 -519.910424 -576.632597 -637.346316 -701.990590 -770.397791 -842.224102 -916.791714 -992.722796 -1067.131555 -1134.582799 -1186.851784 -1211.712185 -1187.832243 -1085.256838 -909.733378 -740.883116 -619.748364 -493.566218 -337.115622 -226.190445 -205.865815 -222.974392 -204.224666 -129.718788 -70.381989 -78.021497 -97.731033 -56.407620 29.008681 76.013303 93.290824 153.146715 246.934059 288.624358 267.083808 255.331974 324.976491 465.900972 587.242076 656.854995 739.598597 920.885496 1218.632839 1552.029585 1854.324496 2150.037343 2508.208512 2986.362884 3595.222067 4294.456893 5034.663165 5781.346863 6514.509606 7246.616732 7990.274378 8713.054463 9353.346329 9896.762193 10390.791914 10873.861840 11335.072361 11637.968855 11694.263469 11694.263469 11694.263469 -0.051056 -0.051056 -0.051056 -0.053025 -0.075414 -0.135182 -0.208136 -0.300338 -0.416992 -0.564918 -0.753001 -0.992291 -1.296242 -1.681076 -2.166225 -2.774827 -3.534260 -4.476707 -5.639732 -7.066869 -8.808203 -10.920933 -13.469902 -16.528078 -20.176970 -24.506970 -29.617601 -35.617673 -42.625323 -50.767948 -60.182024 -71.012799 -83.413872 -97.546650 -113.579664 -131.687756 -152.051101 -174.854038 -200.283684 -228.528264 -259.775094 -294.208109 -332.004813 -373.332471 -418.343321 -467.168520 -519.910424 -576.632597 -637.346316 -701.990590 -770.397791 -842.224102 -916.791714 -992.722796 -1067.131555 -1134.582799 -1186.851784 -1211.712185 -1187.832243 -1085.256838 -909.733378 -740.883116 -619.748364 -493.566218 -337.115622 -226.190445 -205.865815 -222.974392 -204.224666 -129.718788 -70.381989 -78.021497 -97.731033 -56.407620 29.008681 76.013303 93.290824 153.146715 246.934059 288.624358 267.083808 255.331974 324.976491 465.900972 587.242076 656.854995 739.598597 920.885496 1218.632839 1552.029585 1854.324496 2150.037343 2508.208512 2986.362884 3595.222067 4294.456893 5034.663165 5781.346863 6514.509606 7246.616732 7990.274378 8713.054463 9353.346329 9896.762193 10390.791914 10873.861840 11335.072361 11637.968855 11694.263469 11694.263469 11694.263469 -0.050610 -0.050610 -0.050610 -0.052533 -0.074702 -0.133972 -0.206928 -0.299456 -0.416320 -0.564265 -0.752251 -0.991374 -1.295107 -1.679672 -2.164497 -2.772714 -3.531696 -4.473614 -5.636026 -7.062457 -8.802984 -10.914799 -13.462738 -16.519763 -20.167378 -24.495970 -29.605061 -35.603460 -42.609304 -50.749994 -60.162008 -70.990601 -83.389380 -97.519757 -113.550279 -131.655798 -152.016505 -174.816759 -200.243698 -228.485577 -259.729747 -294.160190 -331.954475 -373.279969 -418.289082 -467.113296 -519.855653 -576.581274 -637.305136 -701.975271 -770.446312 -842.429194 -917.377080 -994.202060 -1070.376468 -1140.671405 -1197.096413 -1229.213627 -1215.170157 -1120.749701 -929.999662 -724.749269 -622.631626 -513.825805 -322.660498 -195.511141 -194.115617 -236.951126 -226.487591 -125.583057 -47.112383 -74.269709 -121.522659 -75.140868 41.845940 85.689900 73.953147 135.709114 263.570780 309.922972 261.605381 221.780780 292.613509 468.884740 602.783243 648.273552 698.393155 869.870407 1199.765605 1561.235324 1856.595717 2128.460610 2461.093637 2922.853455 3530.630816 4230.963255 4968.108528 5718.175222 6443.747109 7173.857477 7936.907042 8702.096537 9369.115141 9902.319823 10377.146174 10857.774850 11325.385897 11628.634003 11682.947614 11682.947614 11682.947614 -0.045849 -0.045849 -0.045849 -0.047345 -0.066123 -0.117756 -0.191356 -0.290172 -0.409579 -0.557760 -0.744774 -0.982234 -1.283779 -1.665653 -2.147246 -2.751626 -3.506089 -4.442728 -5.599016 -7.018396 -8.750864 -10.853537 -13.391181 -16.436697 -20.071541 -24.386063 -29.479761 -35.461436 -42.449232 -50.570573 -59.961978 -70.768756 -83.144587 -97.250974 -113.256571 -131.336364 -151.670698 -174.444119 -199.843994 -228.058858 -259.276416 -293.681120 -331.451193 -372.754998 -417.746627 -466.560756 -519.307122 -576.065990 -636.888285 -701.809718 -770.901688 -844.412681 -923.118699 -1009.004462 -1106.624809 -1210.454358 -1310.018970 -1424.496350 -1563.433539 -1729.521961 -1154.158072 -476.637070 -692.376118 -882.791987 -119.221328 323.248796 -53.921220 -427.087865 -661.174494 -62.964016 425.609106 -16.500513 -502.315208 -457.709036 379.172182 302.101101 -251.859645 -230.408487 595.310005 656.529145 202.902871 -240.613931 -244.698989 596.691658 904.984835 571.995408 161.578578 117.523000 981.185974 1788.371293 1932.776399 1879.940398 1864.056909 2075.501895 2663.872012 3363.862825 4061.546137 4923.494901 5583.851194 6217.654715 7138.078926 8438.859479 9537.900663 9973.061583 10189.108697 10636.430613 11182.936571 11510.888977 11558.739628 11558.739628 11558.739628 -0.039377 -0.039377 -0.039377 -0.040512 -0.053698 -0.089413 -0.157970 -0.275073 -0.400844 -0.550042 -0.736196 -0.971858 -1.270958 -1.649797 -2.127732 -2.727765 -3.477106 -4.407758 -5.557098 -6.968476 -8.691796 -10.784088 -13.310039 -16.342482 -19.962816 -24.261347 -29.337550 -35.300213 -42.267490 -50.366831 -59.734800 -70.516769 -82.866500 -96.945600 -112.922845 -130.973370 -151.277695 -174.020581 -199.389652 -227.573762 -258.761026 -293.136445 -330.879032 -372.158403 -417.130877 -465.935546 -518.691746 -575.501936 -636.470376 -701.763780 -771.779346 -847.583759 -932.039468 -1032.726062 -1170.254586 -1310.354867 -1446.434413 -1658.213808 -2034.823251 -2365.007491 -945.160739 160.905115 -796.311952 -1450.961139 176.966598 1131.896673 164.572323 -767.076127 -1509.151084 -9.348661 1336.553957 155.854805 -1303.145124 -1335.783183 1190.175020 932.035586 -1180.611826 -1293.560789 1617.153927 1569.045081 139.029888 -1216.683739 -1655.448933 1185.563921 1878.644125 508.332356 -752.305413 -1739.033024 759.337016 2777.069388 2127.238769 1575.085086 881.500010 377.366666 1005.934879 2137.935820 1977.310749 4371.977599 4559.320329 4812.791449 5072.400658 7040.570268 10277.934307 10412.068932 10439.814132 10499.185669 10836.253510 11280.530361 11369.692662 11369.692662 11369.692662 -0.038512 -0.038512 -0.038512 -0.039593 -0.052055 -0.085012 -0.032877 -0.032877 -0.032877 -0.033570 -0.041492 -0.058994 -0.024830 -0.024830 -0.024830 -0.025135 -0.028359 -0.033824 -0.018290 -0.018290 -0.018290 -0.018404 -0.019531 -0.021374 -0.013262 -0.013262 -0.013262 -0.013296 -0.013629 -0.014204 -0.009512 -0.009512 -0.009512 -0.009518 -0.009572 -0.009708 -0.006767 -0.006767 -0.006767 -0.006764 -0.006732 -0.006725 -0.004781 -0.004781 -0.004781 -0.004777 -0.004727 -0.004682 -0.003358 -0.003358 -0.003358 -0.003353 -0.003308 -0.003260 -0.002345 -0.002345 -0.002345 -0.002341 -0.002305 -0.002265 -0.001628 -0.001628 -0.001628 -0.001626 -0.001598 -0.001568 -0.001125 -0.001125 -0.001125 -0.001123 -0.001103 -0.001080 -0.000773 -0.000773 -0.000773 -0.000771 -0.000757 -0.000741 -0.000528 -0.000528 -0.000528 -0.000527 -0.000517 -0.000506 -0.000359 -0.000359 -0.000359 -0.000358 -0.000351 -0.000343 -0.000243 -0.000243 -0.000243 -0.000242 -0.000237 -0.000232 -0.000163 -0.000163 -0.000163 -0.000163 -0.000160 -0.000156 -0.000109 -0.000109 -0.000109 -0.000109 -0.000107 -0.000104 -0.000073 -0.000073 -0.000073 -0.000073 -0.000071 -0.000069 -0.000048 -0.000048 -0.000048 -0.000048 -0.000047 -0.000046 -0.000032 -0.000032 -0.000032 -0.000032 -0.000031 -0.000030 -0.000021 -0.000021 -0.000021 -0.000021 -0.000020 -0.000020 -0.000014 -0.000014 -0.000014 -0.000014 -0.000013 -0.000013 -0.000009 -0.000009 -0.000009 -0.000009 -0.000009 -0.000008 -0.000006 -0.000006 -0.000006 -0.000006 -0.000006 -0.000005 -0.000004 -0.000004 -0.000004 -0.000004 -0.000004 -0.000003 -0.000002 -0.000002 -0.000002 -0.000002 -0.000002 -0.000002 -0.000001 -0.000001 -0.000001 -0.000001 -0.000001 -0.000001 -0.000001 -0.000001 -0.000001 -0.000001 -0.000001 -0.000001 -0.000001 -0.000001 -0.000001 -0.000001 -0.000001 -0.000001 -0.000000 -0.000000 -0.000000 -0.000000 -0.000000 -0.000000 -0.000000 -0.000000 -0.000000 -0.000000 -0.000000 -0.000000 -0.000000 -0.000000 -0.000000 -0.000000 -0.000000 -0.000000 -0.000000 -0.000000 -0.000000 -0.000000 -0.000000 -0.000000 -0.000000 -0.000000 -0.000000 -0.000000 -0.000000 -0.000000 -0.000000 -0.000000 -0.000000 -0.000000 -0.000000 -0.000000 -0.000000 -0.000000 -0.000000 -0.000000 -0.000000 -0.000000 -0.000000 -0.000000 -0.000000 -0.000000 -0.000000 -0.000000 -0.000000 -0.000000 -0.000000 -0.000000 -0.000000 -0.000000 -0.000000 -0.000000 -0.000000 -0.000000 -0.000000 -0.000000 -0.000000 -0.000000 -0.000000 -0.000000 -0.000000 -0.000000 -0.000000 -0.000000 -0.000000 -0.000000 -0.000000 -0.000000 -0.000000 -0.000000 -0.000000 -0.000000 -0.000000 -0.000000 -0.000000 -0.000000 -0.000000 -0.000000 -0.000000 -0.000000 -0.000000 -0.000000 -0.000000 -0.000000 -0.000000 -0.000000 -0.000000 -0.000000 -0.000000 -0.000000 -0.000000 -0.000000 -0.000000 -0.000000 -0.000000 -0.000000 -0.000000 -0.000000 -0.000000 -0.000000 -0.000000 -0.000000 -0.000000 -0.000000 -0.000000 -0.000000 -0.000000 -0.000000 -0.000000 -0.000000 -0.000000 -0.000000 -0.000000 -0.000000 -0.000000 -0.000000 -0.000000 -0.000000 -0.000000 -0.000000 -0.000000 -0.000000 -0.000000 -0.000000 -0.000000 -0.000000 -0.000000 -0.000000 -0.000000 -0.000000 -0.000000 -0.000000 -0.000000 -0.000000 -0.000000 -0.000000 -0.000000 -0.000000 -0.000000 -0.000000 -0.000000 -0.000000 -0.000000 -0.000000 -0.000000 -0.000000 -0.000000 -0.000000 -0.000000 -0.000000 -0.000000 -0.000000 -0.000000 -0.000000 -0.000000 -0.000000 -0.000000 -0.000000 -0.000000 -0.000000 -0.000000 -0.000000 -0.000000 -0.000000 -0.000000 -0.000000 -0.000000 -0.000000 -0.000000 -0.000000 -0.000000 -0.000000 -0.000000 -0.000000 -0.000000 -0.000000 -0.000000 -0.000000 -0.000000 -0.000000 -0.000000 -0.000000 -0.000000 -0.000000 -0.000000 -0.000000 -0.000000 -0.000000 -0.000000 -0.000000 -0.000000 -0.000000 -0.000000 -0.000000 -0.000000 -0.000000 -0.000000 -0.000000 -0.000000 -0.000000 -0.000000 -0.000000 -0.000000 -0.000000 -0.000000 -0.000000 -0.000000 -0.000000 -0.000000 -0.000000 -0.000000 -0.000000 -0.000000 -0.000000 -0.000000 -0.000000 -0.000000 -0.000000 -0.000000 -0.000000 -0.000000 -0.000000 -0.000000 -0.000000 -0.000000 -0.000000 -0.000000 -0.000000 -0.000000 -0.000000 -0.000000 -0.000000 -0.000000 -0.000000 -0.000000 -0.000000 -0.000000 -0.000000 -0.000000 -0.000000 -0.000000 -0.000000 -0.000000 -0.000000 -0.000000 -0.000000 -0.000000 -0.000000 -0.000000 -0.000000 -0.000000 -0.000000 -0.000000 -0.000000 -0.000000 -0.000000 -0.000000 -0.000000 -0.000000 -0.000000 -0.000000 -0.000000 -0.000000 -0.000000 -0.000000 -0.000000 -0.000000 -0.000000 -0.000000 -0.000000 -0.000000 -0.000000 -0.000000 -0.000000 -0.000000 -0.000000 -0.000000 -0.000000 -0.000000 -0.000000 -0.000000 -0.000000 -0.000000 -0.000000 -0.000000 -0.000000 -0.000000 -0.000000 -0.000000 -0.000000 -0.000000 -0.000000 -0.000000 -0.000000 -0.000000 -0.000000 -0.000000 -0.000000 -0.000000 -0.000000 -0.000000 -0.000000 -0.000000 -0.000000 -0.000000 -0.000000 -0.000000 -0.000000 -0.000000 -0.000000 -0.000000 -0.000000 -0.000000 -0.000000 -0.000000 -0.000000 -0.000000 -0.000000 -0.000000 -0.000000 -0.000000 -0.000000 -0.000000 -0.000000 -0.000000 -0.000000 -0.000000 -0.000000 -0.000000 -0.000000 -0.000000 -0.000000 -0.000000 -0.000000 -0.000000 -0.000000 -0.000000 -0.000000 -0.000000 -0.000000 -0.000000 -0.000000 -0.000000 -0.000000 -0.000000 -0.000000 -0.000000 -0.000000 -0.000000 -0.000000 -0.000000 -0.000000 -0.000000 -0.000000 -0.000000 -0.000000 -0.000000 -0.000000 -0.000000 -0.000000 -0.000000 -0.000000 -0.000000 -0.000000 -0.000000 -0.000000 -0.000000 -0.000000 -0.000000 -0.000000 -0.000000 -0.000000 -0.000000 -0.000000 -0.000000 -0.000000 -0.000000 -0.000000 -0.000000 -0.000000 -0.000000 -0.000000 -0.000000 -0.000000 -0.000000 -0.000000 -0.000000 -0.000000 -0.000000 -0.000000 -0.000000 -0.000000 -0.000000 -0.000000 -0.000000 -0.000000 -0.000000 -0.000000 -0.000000 -0.000000 -0.000000 -0.000000 -0.000000 -0.000000 -0.000000 -0.000000 -0.000000 -0.000000 -0.000000 -0.000000 -0.000000 -0.000000 -0.000000 -0.000000 -0.000000 -0.000000 -0.000000 -0.000000 -0.000000 -0.000000 -0.000000 -0.000000 -0.000000 -0.000000 -0.000000 -0.000000 -0.000000 -0.000000 -0.000000 -0.000000 -0.000000 -0.000000 -0.000000 -0.000000 -0.000000 -0.000000 -0.000000 -0.000000 -0.000000 -0.000000 -0.000000 -0.000000 -0.000000 -0.000000 -0.000000 -0.000000 -0.000000 -0.000000 -0.000000 -0.000000 -0.000000 -0.000000 -0.000000 -0.000000 -0.000000 -0.000000 -0.000000 -0.000000 -0.000000 -0.000000 -0.000000 -0.000000 -0.000000 -0.000000 -0.000000 -0.000000 -0.000000 -0.000000 -0.000000 -0.000000 -0.000000 -0.000000 -0.000000 -0.000000 -0.000000 -0.000000 -0.000000 -0.000000 -0.000000 -0.000000 -0.000000 -0.000000 -0.000000 -0.000000 -0.000000 -0.000000 -0.000000 -0.000000 -0.000000 -0.000000 -0.000000 -0.000000 -0.000000 -0.000000 -0.000000 -0.000000 -0.000000 -0.000000 -0.000000 -0.000000 -0.000000 -0.000000 -0.000000 -0.000000 -0.000000 -0.000000 -0.000000 -0.000000 -0.000000 -0.000000 -0.000000 -0.000000 -0.000000 -0.000000 -0.000000 -0.000000 -0.000000 -0.000000 -0.000000 -0.000000 -0.000000 -0.000000 -0.000000 -0.000000 -0.000000 -0.000000 -0.000000 -0.000000 -0.000000 -0.000000 -0.000000 -0.000000 -0.000000 -0.000000 -0.000000 -0.000000 -0.000000 -0.000000 -0.000000 -0.000000 -0.000000 -0.000000 -0.000000 -0.000000 -0.000000 -0.000000 -0.000000 -0.000000 -0.000000 -0.000000 -0.000000 -0.000000 -0.000000 -0.000000 -0.000000 -0.000000 -0.000000 -0.000000 -0.000000 -0.000000 -0.000000 -0.000000 -0.000000 -0.000000 -0.000000 -0.000000 -0.000000 -0.000000 -0.000000 -0.000000 -0.000000 -0.000000 -0.000000 -0.000000 -0.000000 -0.000000 -0.000000 -0.000000 -0.000000 -0.000000 -0.000000 -0.000000 -0.000000 -0.000000 -0.000000 -0.000000 -0.000000 -0.000000 -0.000000 -0.000000 -0.000000 -0.000000 -0.000000 -0.000000 -0.000000 -0.000000 -0.000000 -0.000000 -0.000000 -0.000000 -0.000000 -0.000000 -0.000000 -0.000000 -0.000000 -0.000000 -0.000000 -0.000000 -0.000000 -0.000000 -0.000000 -0.000000 -0.000000 -0.000000 -0.000000 -0.000000 -0.000000 -0.000000 -0.000000 -0.000000 -0.000000 -0.000000 -0.000000 -0.000000 -0.000000 -0.000000 -0.000000 -0.000000 -0.000000 -0.000000 -0.000000 -0.000000 -0.000000 -0.000000 -0.000000 -0.000000 -0.000000 -0.000000 -0.000000 -0.000000 -0.000000 -0.000000 -0.000000 -0.000000 -0.000000 -0.000000 -0.000000 -0.000000 -0.000000 -0.000000 -0.000000 -0.000000 -0.000000 -0.000000 -0.000000 -0.000000 -0.000000 -0.000000 -0.000000 -0.000000 -0.000000 -0.000000 -0.000000 -0.000000 -0.000000 -0.000000 -0.000000 -0.000000 -0.000000 -0.000000 -0.000000 -0.000000 -0.000000 -0.000000 -0.000000 -0.000000 -0.000000 -0.000000 -0.000000 -0.000000 -0.000000 -0.000000 -0.000000 -0.000000 -0.000000 -0.000000 -0.000000 -0.000000 -0.000000 -0.000000 -0.000000 -0.000000 -0.000000 -0.000000 -0.000000 -0.000000 -0.000000 -0.000000 -0.000000 -0.000000 -0.000000 -0.000000 -0.000000 -0.000000 -0.000000 -0.000000 -0.000000 -0.000000 -0.000000 -0.000000 -0.000000 -0.000000 -0.000000 -0.000000 -0.000000 -0.000000 -0.000000 -0.000000 -0.000000 -0.000000 -0.000000 -0.000000 -0.000000 -0.000000 -0.000000 -0.000000 -0.000000 -0.000000 -0.000000 -0.000000 -0.000000 -0.000000 -0.000000 -0.000000 -0.000000 -0.000000 -0.000000 -0.000000 -0.000000 -0.000000 -0.000000 -0.000000 -0.000000 -0.000000 -0.000000 -0.000000 -0.000000 -0.000000 -0.000000 -0.000000 -0.000000 -0.000000 -0.000000 -0.000000 -0.000000 -0.000000 -0.000000 -0.000000 -0.000000 -0.000000 -0.000000 -0.000000 -0.000000 -0.000000 -0.000000 -0.000000 -0.000000 -0.000000 -0.000000 -0.000000 -0.000000 -0.000000 -0.000000 -0.000000 -0.000000 -0.000000 -0.000000 -0.000000 -0.000000 -0.000000 0.000000 -0.000000 -0.000000 -0.000000 -0.000000 -0.000000 -0.000000 -0.000000 -0.000000 -0.000000 -0.000000 -0.000000 -0.000000 -0.000000 -0.000000 -0.000000 -0.000000 -0.000000 -0.000000 -0.000000 -0.000000 -0.000000 -0.000000 -0.000000 -0.000000 -0.000000 -0.000000 -0.000000 -0.000000 -0.000000 -0.000000 -0.000000 -0.000000 -0.000000 -0.000000 -0.000000 -0.000000 -0.000000 -0.000000 -0.000000 -0.000000 -0.000000 -0.000000 -0.000000 -0.000000 -0.000000 -0.000000 -0.000000 -0.000000 -0.000000 -0.000000 -0.000000 -0.000000 -0.000000 -0.000000 -0.000000 -0.000000 -0.000000 -0.000000 -0.000000 -0.000000 -0.000000 -0.000000 -0.000000 -0.000000 -0.000000 -0.000000 -0.000000 -0.000000 -0.000000 -0.000000 -0.000000 -0.000000 -0.000000 -0.000000 -0.000000 -0.000000 -0.000000 -0.000000 -0.000000 -0.000000 -0.000000 -0.000000 -0.000000 -0.000000 -0.000000 -0.000000 -0.000000 -0.000000 -0.000000 -0.000000 -0.000000 -0.000000 -0.000000 -0.000000 -0.000000 -0.000000 -0.000000 -0.000000 -0.000000 -0.000000 -0.000000 -0.000000 -0.000000 -0.000000 -0.000000 -0.000000 -0.000000 -0.000000 -0.000000 -0.000000 -0.000000 -0.000000 -0.000000 -0.000000 -0.000000 -0.000000 -0.000000 -0.000000 -0.000000 -0.000000 -0.000000 -0.000000 -0.000000 -0.000000 -0.000000 -0.000000 -0.000000 -0.000000 -0.000000 -0.000000 -0.000000 -0.000000 -0.000000 -0.000000 -0.000000 -0.000000 -0.000000 -0.000000 -0.000000 -0.000000 -0.000000 -0.000000 -0.000000 -0.000000 -0.000000 -0.000000 -0.000000 -0.000000 -0.000000 -0.000000 -0.000000 -0.000000 -0.000000 -0.000000 -0.000000 -0.000000 -0.000000 -0.000000 -0.000000 -0.000000 -0.000000 -0.000000 -0.000000 -0.000000 -0.000000 -0.000000 -0.000000 -0.000000 -0.000000 -0.000000 -0.000000 -0.000000 -0.000000 -0.000000 -0.000000 -0.000000 -0.000000 -0.000000 -0.000000 -0.000000 -0.000000 -0.000000 -0.000000 -0.000000 -0.000000 -0.000000 -0.000000 -0.000000 -0.000000 -0.000000 -0.000000 -0.000000 -0.000000 -0.000000 -0.000000 -0.000000 -0.000000 -0.000000 -0.000000 -0.000000 -0.000000 -0.000000 -0.000000 -0.000000 -0.000000 -0.000000 -0.000000 -0.000000 -0.000000 -0.000000 -0.000000 -0.000000 -0.000000 -0.000000 -0.000000 -0.000000 -0.000000 -0.000000 -0.000000 -0.000000 -0.000000 -0.000000 -0.000000 -0.000000 -0.000000 -0.000000 -0.000000 -0.000000 -0.000000 -0.000000 -0.000000 -0.000000 -0.000000 -0.000000 -0.000000 -0.000000 -0.000000 -0.000000 -0.000000 -0.000000 -0.000000 -0.000001 -0.000002 -0.000002 -0.000004 -0.000005 -0.000008 -0.000012 -0.000017 -0.000025 -0.000037 -0.000052 -0.000074 -0.000104 -0.000145 -0.000200 -0.000273 -0.000370 -0.000493 -0.000650 -0.000843 -0.001075 -0.001341 -0.001632 -0.001919 -0.002153 -0.002249 -0.002067 -0.001387 0.000129 0.002983 0.007909 0.015968 0.028662 0.048097 0.077186 0.119911 0.181666 0.269675 0.393521 0.565807 0.802944 1.126123 1.562466 2.146385 2.921178 3.940862 5.272262 6.997357 9.215884 12.048167 15.638166 20.156679 25.804668 32.816628 41.463954 52.058241 64.954509 80.554386 99.309349 121.724231 148.361185 179.844243 216.864286 260.183589 310.638259 369.136052 436.647345 514.190389 602.821612 703.663110 818.041594 947.898920 1096.838807 1272.773529 1495.121096 1816.277292 2384.219200 3709.579309 5840.623789 5429.142194 3094.287870 2909.090278 3214.482142 3954.226533 4272.433986 5470.000755 5828.281015 7629.032487 9642.390776 9414.810750 11170.490487 11547.178508 13182.819712 14038.631623 14663.920065 15669.751296 14250.852010 13941.024238 14075.519863 15191.468250 17131.953518 15798.352714 15206.975081 15206.975081 15206.975081 -0.000000 -0.000000 -0.000000 -0.000000 -0.000000 -0.000001 -0.000001 -0.000002 -0.000002 -0.000004 -0.000006 -0.000008 -0.000012 -0.000018 -0.000026 -0.000037 -0.000053 -0.000075 -0.000106 -0.000147 -0.000203 -0.000277 -0.000374 -0.000498 -0.000655 -0.000849 -0.001080 -0.001345 -0.001632 -0.001912 -0.002134 -0.002210 -0.001996 -0.001267 0.000321 0.003281 0.008361 0.016638 0.029638 0.049497 0.079166 0.122678 0.185487 0.274894 0.400582 0.575267 0.815504 1.142654 1.584037 2.174302 2.957016 3.986503 5.329936 7.069676 9.305877 12.159314 15.774417 20.322473 26.004938 33.056799 41.749929 52.396387 65.351643 81.017776 99.846751 122.343945 149.072145 180.656092 217.787345 261.228615 311.815876 370.455874 438.117123 515.815870 604.607638 705.613504 820.143003 950.032423 1098.431717 1271.571378 1482.938469 1763.586740 2184.542772 2842.480479 3614.791346 4045.624401 4055.023833 4229.177235 4819.427707 5067.959435 5684.375173 6544.009516 7130.253593 8433.594691 9701.251096 10242.473846 11399.147522 11717.696099 12847.707305 14038.279755 14601.263911 15044.243086 14700.146260 14487.819261 14252.673276 14018.572596 15342.092661 14664.281078 14383.322029 14383.322029 14383.322029 -0.000000 -0.000000 -0.000000 -0.000000 -0.000000 -0.000001 -0.000001 -0.000002 -0.000003 -0.000004 -0.000006 -0.000008 -0.000012 -0.000018 -0.000026 -0.000038 -0.000054 -0.000077 -0.000108 -0.000150 -0.000206 -0.000281 -0.000378 -0.000504 -0.000661 -0.000855 -0.001086 -0.001349 -0.001631 -0.001903 -0.002111 -0.002163 -0.001913 -0.001127 0.000546 0.003630 0.008888 0.017419 0.030774 0.051124 0.081464 0.125885 0.189912 0.280936 0.408749 0.586202 0.830015 1.161740 1.608929 2.206500 2.998329 4.039094 5.396361 7.152932 9.409439 12.287168 15.931089 20.513048 26.235063 33.332685 42.078333 52.784596 65.807464 81.549539 100.463342 123.054882 149.887669 181.587236 218.845873 262.426714 313.165465 371.967598 439.799432 517.675108 606.650058 707.847451 822.567755 952.560719 1100.568840 1271.277947 1472.823745 1718.807939 2028.744893 2416.866481 2861.002564 3298.992905 3716.979772 4181.917035 4726.066913 5318.408196 5962.683619 6671.788253 7437.443090 8278.795278 9120.909910 9885.374938 10630.996976 11354.924795 12081.948322 12753.805032 13299.080329 13717.551780 14022.308195 14234.209836 14420.000115 14259.949158 14196.179805 13983.324382 13929.521037 13929.521037 13929.521037 -0.000000 -0.000000 -0.000000 -0.000000 -0.000000 -0.000001 -0.000001 -0.000002 -0.000003 -0.000004 -0.000006 -0.000009 -0.000013 -0.000018 -0.000026 -0.000038 -0.000054 -0.000077 -0.000108 -0.000150 -0.000206 -0.000281 -0.000379 -0.000505 -0.000663 -0.000856 -0.001087 -0.001350 -0.001631 -0.001901 -0.002107 -0.002155 -0.001897 -0.001101 0.000587 0.003693 0.008984 0.017560 0.030979 0.051417 0.081879 0.126464 0.190710 0.282026 0.410222 0.588174 0.832629 1.165178 1.613412 2.212297 3.005765 4.048557 5.408310 7.167905 9.428060 12.310151 15.959246 20.547290 26.276404 33.382237 42.137308 52.854300 65.889297 81.644994 100.574013 123.182477 150.034026 181.754330 219.035809 262.641662 313.407538 372.238668 440.100977 518.008255 607.016032 708.248218 823.004810 953.023714 1100.986210 1271.340670 1471.408090 1712.277186 2007.433728 2364.525842 2771.642490 3201.614402 3647.149821 4135.568320 4687.541784 5292.410397 5947.018212 6653.473578 7408.945622 8209.832662 9013.601734 9780.325888 10524.063450 11244.550306 11933.064777 12555.166487 13078.023851 13491.553651 13810.038825 14071.761611 14235.727044 14226.024132 14058.668760 13899.297566 13868.358738 13868.358738 13868.358738 -0.000000 -0.000000 -0.000000 -0.000000 -0.000000 -0.000001 -0.000001 -0.000002 -0.000003 -0.000004 -0.000006 -0.000009 -0.000013 -0.000018 -0.000026 -0.000038 -0.000054 -0.000077 -0.000108 -0.000150 -0.000206 -0.000281 -0.000379 -0.000505 -0.000663 -0.000856 -0.001087 -0.001350 -0.001631 -0.001901 -0.002107 -0.002155 -0.001897 -0.001101 0.000587 0.003693 0.008984 0.017560 0.030979 0.051417 0.081879 0.126464 0.190710 0.282026 0.410222 0.588174 0.832629 1.165178 1.613412 2.212297 3.005765 4.048557 5.408310 7.167905 9.428060 12.310151 15.959246 20.547290 26.276404 33.382237 42.137308 52.854300 65.889297 81.644994 100.574013 123.182477 150.034026 181.754330 219.035809 262.641662 313.407538 372.238668 440.100977 518.008255 607.016032 708.248218 823.004810 953.023714 1100.986210 1271.340670 1471.408090 1712.277186 2007.433728 2364.525842 2771.642490 3201.614402 3647.149821 4135.568320 4687.541784 5292.410397 5947.018212 6653.473578 7408.945622 8209.832662 9013.601734 9780.325888 10524.063450 11244.550306 11933.064777 12555.166487 13078.023851 13491.553651 13810.038825 14071.761611 14235.727044 14226.024132 14058.668760 13899.297566 13868.358738 13868.358738 13868.358738 -0.000000 -0.000000 -0.000000 -0.000000 -0.000000 -0.000001 -0.000001 -0.000002 -0.000003 -0.000004 -0.000006 -0.000009 -0.000013 -0.000018 -0.000026 -0.000038 -0.000054 -0.000077 -0.000108 -0.000150 -0.000206 -0.000281 -0.000379 -0.000505 -0.000663 -0.000856 -0.001087 -0.001350 -0.001631 -0.001901 -0.002107 -0.002155 -0.001897 -0.001101 0.000587 0.003693 0.008984 0.017560 0.030979 0.051417 0.081879 0.126464 0.190710 0.282026 0.410222 0.588174 0.832629 1.165178 1.613412 2.212297 3.005765 4.048557 5.408310 7.167905 9.428060 12.310151 15.959246 20.547290 26.276404 33.382237 42.137308 52.854300 65.889297 81.644994 100.574013 123.182477 150.034026 181.754330 219.035809 262.641662 313.407538 372.238668 440.100977 518.008255 607.016032 708.248218 823.004810 953.023714 1100.986210 1271.340670 1471.408090 1712.277186 2007.433728 2364.525842 2771.642490 3201.614402 3647.149821 4135.568320 4687.541784 5292.410397 5947.018212 6653.473578 7408.945622 8209.832662 9013.601734 9780.325888 10524.063450 11244.550306 11933.064777 12555.166487 13078.023851 13491.553651 13810.038825 14071.761611 14235.727044 14226.024132 14058.668760 13899.297566 13868.358738 13868.358738 13868.358738 -1345.249692 -1492.523366 -1731.814233 -2168.446789 -2178.850456 -397.928958 150.668635 -1049.481936 -1317.427574 606.859804 1036.373303 -27.585907 -1016.510064 -1494.666504 490.404941 1312.836811 -148.613179 -1687.576052 -999.126466 1619.804428 580.065971 -1727.827039 -900.715637 2207.020009 1395.491220 -114.161481 -1696.885303 -1464.474864 1892.463951 1799.806024 260.813536 -1256.310397 -1933.348689 1581.122796 2976.508841 2012.020613 1424.304384 452.701787 -233.434346 1014.002046 1814.522887 1823.551455 4791.519965 4247.185725 4957.360209 4603.337741 7739.650573 10868.275360 10741.769210 10817.645701 10769.719957 10843.946861 11279.439935 11340.253601 11340.253601 11340.253601 -1792.175978 -173.799016 -218.211985 11579.449671 10938.208438 9318.085370 7142.075119 12103.593649 10380.636570 8026.470631 7271.971468 6702.517828 9795.998906 6863.601497 9575.745248 9259.988955 8248.500527 12003.010360 8395.248315 7169.356866 8736.334915 9904.112805 8319.289438 6506.921116 6948.238092 7103.282110 7660.638838 7470.589767 6959.164096 7627.393867 6558.410194 8076.249979 13036.634004 5777.831976 6361.717293 9572.504187 8179.188130 9658.356914 8107.678300 8347.600810 8597.724619 6601.937989 8552.309491 8822.323990 8367.131426 6701.286010 9549.122172 10064.638683 9010.731737 8193.142637 10181.588431 9888.688404 10902.571446 11120.097784 11120.097784 11120.097784 122.224420 111.579737 3817.873989 604.853763 10474.662016 10206.883089 7226.641615 10534.754557 7194.609688 12380.912473 13209.884317 8619.519642 10339.498836 10954.143470 7463.587261 9166.439991 4388.569744 8418.044442 7292.102684 10413.707247 7153.440537 8345.633410 9103.373616 7247.753765 8202.024573 8389.463129 6471.479077 8794.171941 7700.149105 7849.498906 6372.346623 8236.827678 7860.086481 5266.114670 7963.000003 8599.762103 7676.148747 7329.104633 8543.126569 9835.629062 7633.394498 7479.256103 7989.801025 7241.081566 7781.918846 11540.204765 6369.738747 8988.353547 8066.817560 12261.976989 8328.749865 7878.401350 10512.045618 10836.175566 10836.175566 10836.175566 -190.066276 -631.697438 8588.486510 5907.365253 10199.948050 4251.900296 12380.091458 5497.671006 9447.161648 14942.984210 10180.540700 10442.579311 11628.640476 5830.946145 7683.635468 7909.525862 9340.471219 7486.437176 8738.768062 11482.730804 10002.863931 5381.062555 7299.213686 7646.576919 9678.295707 7270.118613 11210.621488 6441.393985 8352.748665 8391.079014 9540.571623 7566.167301 8028.575828 7893.402580 6959.557569 7370.162763 7159.256032 6336.856868 6569.879908 5241.350322 5901.155861 6662.769358 6496.269554 12817.662933 7888.787819 12206.755777 12769.685400 9599.205607 11567.189666 9635.517011 7658.575862 10380.417685 10670.555975 10726.598366 10726.598366 10726.598366 863.477168 1221.040661 2543.675714 2270.748305 2470.312954 9938.765414 9476.047679 7526.603840 4313.781412 10063.724349 3704.288703 6576.228569 6625.775163 9728.490763 6609.390326 9890.834003 3676.590640 4425.022516 7461.119347 2874.391600 4477.386830 4593.446172 8791.966732 5022.668453 9882.5