<VTKFile type="PolyData">
<PolyData>
<Piece NumberOfPoints="8632" NumberOfVerts="8632" NumberOfLines="0" NumberOfStrips="0" NumberOfPolys="0">
<PointData>
<DataArray type="Float64" Name="Pressure" format="ascii">
 -2.149564 -2.149564 -2.149564 -2.182349 -2.550737 -3.506373 -4.601440 -5.869583 -7.315600 -8.952735 -10.805331 -12.904964 -15.288052 -17.994857 -21.069208 -24.558489 -28.513739 -32.989763 -38.045229 -43.742745 -50.148888 -57.334193 -65.373098 -74.343826 -84.328218 -95.411504 -107.682006 -121.230774 -136.151153 -152.538269 -170.488422 -190.098404 -211.464695 -234.682559 -259.845007 -287.041636 -316.357325 -347.870796 -381.653063 -417.765807 -456.259731 -497.173012 -540.529969 -586.340131 -634.597885 -685.282908 -738.361463 -793.788447 -851.509476 -911.461019 -973.563491 -1037.695206 -1103.619190 -1170.806532 -1238.068834 -1303.272247 -1363.760597 -1416.209915 -1454.338826 -1465.429783 -1425.574675 -1305.130866 -1120.424342 -955.431345 -835.928951 -704.531983 -539.415515 -414.443688 -375.965314 -379.111186 -356.821403 -275.986444 -189.158330 -172.778875 -201.196209 -187.990395 -51.087516 235.120302 595.344818 922.215300 1162.966157 1380.094401 1694.748869 2171.195066 2772.367781 3425.798392 4073.714522 4674.992368 5227.528687 5764.025058 6314.080630 6879.104017 7454.772717 8063.262118 8717.143150 9375.113393 9984.955165 10531.200831 11016.154043 11447.564926 11826.592041 12137.054209 12378.718449 12573.531913 12708.551303 12763.736209 12774.080526 12783.915498 12787.763592 12787.763592 12787.763592 -2.149564 -2.149564 -2.149564 -2.182349 -2.550737 -3.506373 -4.601440 -5.869583 -7.315600 -8.952735 -10.805331 -12.904964 -15.288052 -17.994857 -21.069208 -24.558489 -28.513739 -32.989763 -38.045229 -43.742745 -50.148888 -57.334193 -65.373098 -74.343826 -84.328218 -95.411504 -107.682006 -121.230774 -136.151153 -152.538269 -170.488422 -190.098404 -211.464695 -234.682559 -259.845007 -287.041636 -316.357325 -347.870796 -381.653063 -417.765807 -456.259731 -497.173012 -540.529969 -586.340131 -634.597885 -685.282908 -738.361463 -793.788447 -851.509476 -911.461019 -973.563491 -1037.695206 -1103.619190 -1170.806532 -1238.068834 -1303.272247 -1363.760597 -1416.209915 -1454.338826 -1465.429783 -1425.574675 -1305.130866 -1120.424342 -955.431345 -835.928951 -704.531983 -539.415515 -414.443688 -375.965314 -379.111186 -356.821403 -275.986444 -189.158330 -172.778875 -201.196209 -187.990395 -51.087516 235.120302 595.344818 922.215300 1162.966157 1380.094401 1694.748869 2171.195066 2772.367781 3425.798392 4073.714522 4674.992368 5227.528687 5764.025058 6314.080630 6879.104017 7454.772717 8063.262118 8717.143150 9375.113393 9984.955165 10531.200831 11016.154043 11447.564926 11826.592041 12137.054209 12378.718449 12573.531913 12708.551303 12763.736209 12774.080526 12783.915498 12787.763592 12787.763592 12787.763592 -2.149564 -2.149564 -2.149564 -2.182349 -2.550737 -3.506373 -4.601440 -5.869583 -7.315600 -8.952735 -10.805331 -12.904964 -15.288052 -17.994857 -21.069208 -24.558489 -28.513739 -32.989763 -38.045229 -43.742745 -50.148888 -57.334193 -65.373098 -74.343826 -84.328218 -95.411504 -107.682006 -121.230774 -136.151153 -152.538269 -170.488422 -190.098404 -211.464695 -234.682559 -259.845007 -287.041636 -316.357325 -347.870796 -381.653063 -417.765807 -456.259731 -497.173012 -540.529969 -586.340131 -634.597885 -685.282908 -738.361463 -793.788447 -851.509476 -911.461019 -973.563491 -1037.695206 -1103.619190 -1170.806532 -1238.068834 -1303.272247 -1363.760597 -1416.209915 -1454.338826 -1465.429783 -1425.574675 -1305.130866 -1120.424342 -955.431345 -835.928951 -704.531983 -539.415515 -414.443688 -375.965314 -379.111186 -356.821403 -275.986444 -189.158330 -172.778875 -201.196209 -187.990395 -51.087516 235.120302 595.344818 922.215300 1162.966157 1380.094401 1694.748869 2171.195066 2772.367781 3425.798392 4073.714522 4674.992368 5227.528687 5764.025058 6314.080630 6879.104017 7454.772717 8063.262118 8717.143150 9375.113393 9984.955165 10531.200831 11016.154043 11447.564926 11826.592041 12137.054209 12378.718449 12573.531913 12708.551303 12763.736209 12774.080526 12783.915498 12787.763592 12787.763592 12787.763592 -2.138149 -2.138149 -2.138149 -2.170278 -2.535773 -3.484694 -4.581819 -5.857231 -7.308539 -8.947917 -10.801144 -12.900693 -15.283380 -17.989633 -21.063339 -24.551909 -28.506388 -32.981583 -38.036163 -43.732736 -50.137879 -57.322129 -65.359924 -74.329489 -84.312670 -95.394699 -107.663903 -121.211340 -136.130361 -152.516098 -170.464864 -190.073460 -211.438379 -234.654898 -259.816046 -287.011438 -316.325972 -347.838392 -381.619737 -417.731709 -456.225038 -497.137921 -540.494699 -586.304920 -634.563010 -685.248728 -738.328564 -793.758018 -851.484306 -911.448004 -973.579910 -1037.784043 -1103.884065 -1171.477794 -1239.468976 -1305.608399 -1367.165325 -1421.710114 -1464.138104 -1483.038335 -1452.213398 -1342.707420 -1136.429867 -937.226657 -838.463646 -724.517965 -530.212818 -382.449371 -359.349558 -385.372420 -374.988848 -275.794048 -152.810468 -151.150542 -209.834270 -227.926106 -104.384754 207.797733 610.083037 964.778681 1186.722058 1355.740595 1631.733491 2104.000087 2711.087163 3369.006717 4038.846822 4662.161003 5221.778398 5753.427569 6300.233032 6867.749529 7435.812003 8032.173082 8695.626108 9378.226696 10002.336991 10556.180126 11041.883127 11476.771439 11871.401912 12192.550510 12429.394674 12629.656410 12767.627512 12794.953601 12780.706503 12799.348269 12808.709290 12808.709290 12808.709290 -2.014587 -2.014587 -2.014587 -2.039923 -2.353913 -3.196095 -4.328800 -5.726216 -7.237486 -8.900105 -10.759510 -12.858099 -15.236737 -17.937439 -21.004701 -24.486155 -28.432924 -32.899835 -37.945561 -43.632709 -50.027859 -57.201555 -65.228251 -74.186195 -84.157263 -95.226726 -107.482962 -121.017087 -135.922522 -152.294482 -170.229374 -189.824108 -211.175303 -234.378377 -259.526522 -286.709535 -316.012515 -347.514425 -381.286538 -417.390796 -455.878163 -496.787059 -540.142030 -585.952842 -634.214264 -684.906861 -737.999293 -793.452936 -851.230471 -911.312343 -973.730574 -1038.642837 -1106.496420 -1178.295944 -1255.987750 -1333.717454 -1404.982168 -1481.367932 -1570.592493 -1680.150426 -1824.763447 -1968.705096 -1303.950357 -694.717907 -911.079189 -1100.154951 -393.667294 120.438492 -161.604125 -468.695865 -724.152383 -341.232312 404.580096 165.577220 -313.506985 -734.713267 -887.945279 -105.525071 830.697209 1599.284194 1576.374796 1071.504470 829.284620 1310.980769 2004.370600 2630.114675 3579.828022 4571.500143 5265.364309 5706.966151 6179.487089 6819.577646 7319.263227 7674.468393 8386.930708 9391.696260 10205.409555 10866.799934 11356.052317 11829.405628 12501.141675 13030.042006 13060.512812 13253.841501 13407.968081 12978.131876 12636.960672 12897.543551 13010.859051 13010.859051 13010.859051 -1.839635 -1.839635 -1.839635 -1.859305 -2.085841 -2.686147 -3.776368 -5.499868 -7.136636 -8.838810 -10.709638 -12.808748 -15.183402 -17.878037 -20.938071 -24.411477 -28.349498 -32.807001 -37.842665 -43.519100 -49.902889 -57.064587 -65.078663 -74.023392 -83.980683 -95.035856 -107.277341 -120.796322 -135.686301 -152.042585 -169.961689 -189.540645 -210.876216 -234.063981 -259.197317 -286.366225 -315.656035 -347.145961 -380.907542 -417.002997 -455.483564 -496.387927 -539.740896 -585.552549 -633.818193 -684.519680 -737.629065 -793.116711 -850.968708 -911.225550 -974.072038 -1040.054733 -1110.626084 -1189.577558 -1287.165962 -1376.359643 -1451.271858 -1551.182867 -1695.395391 -1916.025005 -2314.212611 -2490.280246 -901.951016 -81.672848 -1031.819208 -1612.754483 -75.507659 936.511335 129.282402 -601.470871 -1339.249196 -610.823370 1146.276137 647.478617 -446.351024 -1501.664705 -2609.180825 -1212.725584 802.062651 3373.294310 2726.950340 728.939341 -911.092871 218.245116 1850.902529 821.403821 2528.336584 4735.104280 5876.943396 6252.858436 5825.651866 6961.830771 7985.482951 7376.381340 7293.558475 9597.484803 10417.990616 11762.639518 12099.564429 12255.411138 13725.781065 15405.141292 14035.083683 13689.659039 13373.462949 12393.740379 11875.492673 12893.522206 13228.702136 13228.702136 13228.702136 -1.815020 -1.815020 -1.815020 -1.833888 -2.049235 -2.605741 -1.645336 -1.645336 -1.645336 -1.657639 -1.797394 -2.102554 -1.384393 -1.384393 -1.384393 -1.389849 -1.447871 -1.546336 -1.151312 -1.151312 -1.151312 -1.153370 -1.173717 -1.207373 -0.950792 -0.950792 -0.950792 -0.951361 -0.956804 -0.966806 -0.781376 -0.781376 -0.781376 -0.781382 -0.781329 -0.782733 -0.639700 -0.639700 -0.639700 -0.639518 -0.637661 -0.636124 -0.521977 -0.521977 -0.521977 -0.521752 -0.519487 -0.517143 -0.424605 -0.424605 -0.424605 -0.424388 -0.422218 -0.419848 -0.344368 -0.344368 -0.344368 -0.344176 -0.342259 -0.340122 -0.278473 -0.278473 -0.278473 -0.278309 -0.276673 -0.274834 -0.224530 -0.224530 -0.224530 -0.224392 -0.223019 -0.221470 -0.180508 -0.180508 -0.180508 -0.180393 -0.179252 -0.177963 -0.144693 -0.144693 -0.144693 -0.144598 -0.143655 -0.142590 -0.115645 -0.115645 -0.115645 -0.115567 -0.114792 -0.113915 -0.092157 -0.092157 -0.092157 -0.092094 -0.091458 -0.090740 -0.073224 -0.073224 -0.073224 -0.073172 -0.072654 -0.072068 -0.058009 -0.058009 -0.058009 -0.057967 -0.057545 -0.057069 -0.045820 -0.045820 -0.045820 -0.045786 -0.045444 -0.045058 -0.036085 -0.036085 -0.036085 -0.036057 -0.035781 -0.035469 -0.028334 -0.028334 -0.028334 -0.028312 -0.028089 -0.027838 -0.022182 -0.022182 -0.022182 -0.022164 -0.021985 -0.021784 -0.017314 -0.017314 -0.017314 -0.017300 -0.017157 -0.016995 -0.013474 -0.013474 -0.013474 -0.013462 -0.013348 -0.013220 -0.010454 -0.010454 -0.010454 -0.010445 -0.010354 -0.010252 -0.008087 -0.008087 -0.008087 -0.008080 -0.008008 -0.007927 -0.006237 -0.006237 -0.006237 -0.006231 -0.006175 -0.006111 -0.004796 -0.004796 -0.004796 -0.004791 -0.004747 -0.004696 -0.003677 -0.003677 -0.003677 -0.003673 -0.003638 -0.003599 -0.002810 -0.002810 -0.002810 -0.002807 -0.002780 -0.002749 -0.002141 -0.002141 -0.002141 -0.002139 -0.002118 -0.002094 -0.001627 -0.001627 -0.001627 -0.001625 -0.001609 -0.001590 -0.001232 -0.001232 -0.001232 -0.001231 -0.001218 -0.001204 -0.000930 -0.000930 -0.000930 -0.000930 -0.000920 -0.000908 -0.000701 -0.000701 -0.000701 -0.000700 -0.000692 -0.000684 -0.000526 -0.000526 -0.000526 -0.000525 -0.000519 -0.000513 -0.000393 -0.000393 -0.000393 -0.000393 -0.000389 -0.000384 -0.000294 -0.000294 -0.000294 -0.000293 -0.000290 -0.000286 -0.000218 -0.000218 -0.000218 -0.000218 -0.000215 -0.000213 -0.000162 -0.000162 -0.000162 -0.000162 -0.000160 -0.000158 -0.000120 -0.000120 -0.000120 -0.000120 -0.000118 -0.000116 -0.000088 -0.000088 -0.000088 -0.000088 -0.000087 -0.000086 -0.000065 -0.000065 -0.000065 -0.000065 -0.000064 -0.000063 -0.000047 -0.000047 -0.000047 -0.000047 -0.000047 -0.000046 -0.000035 -0.000035 -0.000035 -0.000035 -0.000034 -0.000034 -0.000025 -0.000025 -0.000025 -0.000025 -0.000025 -0.000024 -0.000018 -0.000018 -0.000018 -0.000018 -0.000018 -0.000018 -0.000013 -0.000013 -0.000013 -0.000013 -0.000013 -0.000013 -0.000010 -0.000010 -0.000010 -0.000010 -0.000009 -0.000009 -0.000007 -0.000007 -0.000007 -0.000007 -0.000007 -0.000007 -0.000005 -0.000005 -0.000005 -0.000005 -0.000005 -0.000005 -0.000004 -0.000004 -0.000004 -0.000004 -0.000003 -0.000003 -0.000003 -0.000003 -0.000003 -0.000003 -0.000002 -0.000002 -0.000002 -0.000002 -0.000002 -0.000002 -0.000002 -0.000002 -0.000001 -0.000001 -0.000001 -0.000001 -0.000001 -0.000001 -0.000001 -0.000001 -0.000001 -0.000001 -0.000001 -0.000001 -0.000001 -0.000001 -0.000001 -0.000001 -0.000001 -0.000001 -0.000000 -0.000000 -0.000000 -0.000000 -0.000000 -0.000000 -0.000000 -0.000000 -0.000000 -0.000000 -0.000000 -0.000000 -0.000000 -0.000000 -0.000000 -0.000000 -0.000000 -0.000000 -0.000000 -0.000000 -0.000000 -0.000000 -0.000000 -0.000000 -0.000000 -0.000000 -0.000000 -0.000000 -0.000000 -0.000000 -0.000000 -0.000000 -0.000000 -0.000000 -0.000000 -0.000000 -0.000000 -0.000000 -0.000000 -0.000000 -0.000000 -0.000000 -0.000000 -0.000000 -0.000000 -0.000000 -0.000000 -0.000000 -0.000000 -0.000000 -0.000000 -0.000000 -0.000000 -0.000000 -0.000000 -0.000000 -0.000000 -0.000000 -0.000000 -0.000000 -0.000000 -0.000000 -0.000000 -0.000000 -0.000000 -0.000000 -0.000000 -0.000000 -0.000000 -0.000000 -0.000000 -0.000000 -0.000000 -0.000000 -0.000000 -0.000000 -0.000000 -0.000000 -0.000000 -0.000000 -0.000000 -0.000000 -0.000000 -0.000000 -0.000000 -0.000000 -0.000000 -0.000000 -0.000000 -0.000000 -0.000000 -0.000000 -0.000000 -0.000000 -0.000000 -0.000000 -0.000000 -0.000000 -0.000000 -0.000000 -0.000000 -0.000000 -0.000000 -0.000000 -0.000000 -0.000000 -0.000000 -0.000000 -0.000000 -0.000000 -0.000000 -0.000000 -0.000000 -0.000000 -0.000000 -0.000000 -0.000000 -0.000000 -0.000000 -0.000000 -0.000000 -0.000000 -0.000000 -0.000000 -0.000000 -0.000000 -0.000000 -0.000000 -0.000000 -0.000000 -0.000000 -0.000000 -0.000000 -0.000000 -0.000000 -0.000000 -0.000000 -0.000000 -0.000000 -0.000000 -0.000000 -0.000000 -0.000000 -0.000000 -0.000000 -0.000000 -0.000000 -0.000000 -0.000000 -0.000000 -0.000000 -0.000000 -0.000000 -0.000000 -0.000000 -0.000000 -0.000000 -0.000000 -0.000000 -0.000000 -0.000000 -0.000000 -0.000000 -0.000000 -0.000000 -0.000000 -0.000000 -0.000000 -0.000000 -0.000000 -0.000000 -0.000000 -0.000000 -0.000000 -0.000000 -0.000000 -0.000000 -0.000000 -0.000000 -0.000000 -0.000000 -0.000000 -0.000000 -0.000000 -0.000000 -0.000000 -0.000000 -0.000000 -0.000000 -0.000000 -0.000000 -0.000000 -0.000000 -0.000000 -0.000000 -0.000000 -0.000000 -0.000000 -0.000000 -0.000000 -0.000000 -0.000000 -0.000000 -0.000000 -0.000000 -0.000000 -0.000000 -0.000000 -0.000000 -0.000000 -0.000000 -0.000000 -0.000000 -0.000000 -0.000000 -0.000000 -0.000000 -0.000000 -0.000000 -0.000000 -0.000000 -0.000000 -0.000000 -0.000000 -0.000000 -0.000000 -0.000000 -0.000000 -0.000000 -0.000000 -0.000000 -0.000000 -0.000000 -0.000000 -0.000000 -0.000000 -0.000000 -0.000000 -0.000000 -0.000000 -0.000000 -0.000000 -0.000000 -0.000000 -0.000000 -0.000000 -0.000000 -0.000000 -0.000000 -0.000000 -0.000000 -0.000000 -0.000000 -0.000000 -0.000000 -0.000000 -0.000000 -0.000000 -0.000000 -0.000000 -0.000000 -0.000000 -0.000000 -0.000000 -0.000000 -0.000000 -0.000000 -0.000000 -0.000000 -0.000000 -0.000000 -0.000000 -0.000000 -0.000000 -0.000000 -0.000000 -0.000000 -0.000000 -0.000000 -0.000000 -0.000000 -0.000000 -0.000000 -0.000000 -0.000000 -0.000000 -0.000000 -0.000000 -0.000000 -0.000000 -0.000000 -0.000000 -0.000000 -0.000000 -0.000000 -0.000000 -0.000000 -0.000000 -0.000000 -0.000000 -0.000000 -0.000000 -0.000000 -0.000000 -0.000000 -0.000000 -0.000000 -0.000000 -0.000000 -0.000000 -0.000000 -0.000000 -0.000000 -0.000000 -0.000000 -0.000000 -0.000000 -0.000000 -0.000000 -0.000000 -0.000000 -0.000000 -0.000000 -0.000000 -0.000000 -0.000000 -0.000000 -0.000000 -0.000000 -0.000000 -0.000000 -0.000000 -0.000000 -0.000000 -0.000000 -0.000000 -0.000000 -0.000000 -0.000000 -0.000000 -0.000000 -0.000000 -0.000000 -0.000000 -0.000000 -0.000000 -0.000000 -0.000000 -0.000000 -0.000000 -0.000000 -0.000000 -0.000000 -0.000000 -0.000000 -0.000000 -0.000000 -0.000000 -0.000000 -0.000000 -0.000000 -0.000000 -0.000000 -0.000000 -0.000000 -0.000000 -0.000000 -0.000000 -0.000000 -0.000000 -0.000000 -0.000000 -0.000000 -0.000000 -0.000000 -0.000000 -0.000000 -0.000000 -0.000000 -0.000000 -0.000000 -0.000000 -0.000000 -0.000000 -0.000000 -0.000000 -0.000000 -0.000000 -0.000000 -0.000000 -0.000000 -0.000000 -0.000000 -0.000000 -0.000000 -0.000000 -0.000000 -0.000000 -0.000000 -0.000000 -0.000000 -0.000000 -0.000000 -0.000000 -0.000000 -0.000000 -0.000000 -0.000000 -0.000000 -0.000000 -0.000000 -0.000000 -0.000000 -0.000000 -0.000000 -0.000000 -0.000000 -0.000000 -0.000000 -0.000000 -0.000000 -0.000000 -0.000000 -0.000000 -0.000000 -0.000000 -0.000000 -0.000000 -0.000000 -0.000000 -0.000000 -0.000000 -0.000000 -0.000000 -0.000000 -0.000000 -0.000000 -0.000000 -0.000000 -0.000000 -0.000000 -0.000000 -0.000000 -0.000000 -0.000000 -0.000000 -0.000000 -0.000000 -0.000000 -0.000000 -0.000000 -0.000000 -0.000000 -0.000000 -0.000000 -0.000000 -0.000000 -0.000000 -0.000000 -0.000000 -0.000000 -0.000000 -0.000000 -0.000000 -0.000000 -0.000000 -0.000000 -0.000000 -0.000000 -0.000000 -0.000000 -0.000000 -0.000000 -0.000000 -0.000000 -0.000000 -0.000000 -0.000000 -0.000000 -0.000000 -0.000000 -0.000000 -0.000000 -0.000000 -0.000000 -0.000000 -0.000000 -0.000000 -0.000000 -0.000000 -0.000000 -0.000000 -0.000000 -0.000000 -0.000000 -0.000000 -0.000000 -0.000000 -0.000000 -0.000000 -0.000000 -0.000000 -0.000000 -0.000000 -0.000000 -0.000000 -0.000000 -0.000000 -0.000000 -0.000000 -0.000000 -0.000000 -0.000000 -0.000000 -0.000000 -0.000000 -0.000000 -0.000000 -0.000000 -0.000000 -0.000000 -0.000000 -0.000000 -0.000000 -0.000000 -0.000000 -0.000000 -0.000000 -0.000000 -0.000000 -0.000000 -0.000000 -0.000000 -0.000000 -0.000000 -0.000000 -0.000000 -0.000000 -0.000000 -0.000000 -0.000000 -0.000000 -0.000000 -0.000000 -0.000000 -0.000000 -0.000000 -0.000000 -0.000000 -0.000000 -0.000000 -0.000000 -0.000000 -0.000000 -0.000000 -0.000000 -0.000000 -0.000000 -0.000000 -0.000000 -0.000000 -0.000000 -0.000000 -0.000000 -0.000000 -0.000000 -0.000000 -0.000000 -0.000000 -0.000000 -0.000000 -0.000000 -0.000000 -0.000000 -0.000000 -0.000000 -0.000000 -0.000000 -0.000000 -0.000000 -0.000000 -0.000000 -0.000000 -0.000000 -0.000000 -0.000000 -0.000000 -0.000000 -0.000000 -0.000000 -0.000000 -0.000000 -0.000000 -0.000000 -0.000000 -0.000000 -0.000000 -0.000000 -0.000000 -0.000000 -0.000000 -0.000000 -0.000000 -0.000000 -0.000000 -0.000000 -0.000000 -0.000000 -0.000000 -0.000000 -0.000000 -0.000000 -0.000000 -0.000000 -0.000000 -0.000000 -0.000000 -0.000000 -0.000000 -0.000000 -0.000000 -0.000000 -0.000000 -0.000000 -0.000000 -0.000000 -0.000000 -0.000000 -0.000000 -0.000000 -0.000000 -0.000000 -0.000000 -0.000000 -0.000000 -0.000000 -0.000000 -0.000000 -0.000000 -0.000000 -0.000000 -0.000000 -0.000000 -0.000000 -0.000000 -0.000000 -0.000000 -0.000000 -0.000000 -0.000000 -0.000000 -0.000000 -0.000000 -0.000000 -0.000000 -0.000000 -0.000000 -0.000000 -0.000000 -0.000000 -0.000000 -0.000000 -0.000000 -0.000000 -0.000000 -0.000000 -0.000000 -0.000000 -0.000000 -0.000000 -0.000000 -0.000000 -0.000000 -0.000000 -0.000000 -0.000000 -0.000000 -0.000000 -0.000000 -0.000000 -0.000000 -0.000000 -0.000000 -0.000000 -0.000000 -0.000000 -0.000000 -0.000000 -0.000000 -0.000000 -0.000000 -0.000000 -0.000000 -0.000000 -0.000000 -0.000000 -0.000000 -0.000000 -0.000000 -0.000000 -0.000000 -0.000000 -0.000000 -0.000000 -0.000000 -0.000000 -0.000000 -0.000000 -0.000000 -0.000000 -0.000000 -0.000000 -0.000000 -0.000000 -0.000000 -0.000000 -0.000000 -0.000000 -0.000000 -0.000000 -0.000000 -0.000000 -0.000000 -0.000000 -0.000000 -0.000000 -0.000000 -0.000000 -0.000000 -0.000000 -0.000000 -0.000000 -0.000000 -0.000000 -0.000000 -0.000000 -0.000000 -0.000000 -0.000000 -0.000000 -0.000000 -0.000000 -0.000000 -0.000000 -0.000000 -0.000000 -0.000000 -0.000000 -0.000000 -0.000000 -0.000000 -0.000000 -0.000000 -0.000000 -0.000000 -0.000000 -0.000001 -0.000001 -0.000001 -0.000001 -0.000001 -0.000001 -0.000001 -0.000001 -0.000001 -0.000001 -0.000001 -0.000001 -0.000001 -0.000001 -0.000001 -0.000001 -0.000001 -0.000001 -0.000000 -0.000000 -0.000000 -0.000000 -0.000000 -0.000001 -0.000000 -0.000000 -0.000000 -0.000000 -0.000000 -0.000000 0.000000 0.000000 0.000000 0.000000 0.000000 0.000000 0.000001 0.000001 0.000001 0.000001 0.000001 0.000001 0.000003 0.000003 0.000003 0.000003 0.000003 0.000002 0.000005 0.000005 0.000005 0.000005 0.000005 0.000005 0.000009 0.000009 0.000009 0.000009 0.000009 0.000009 0.000015 0.000015 0.000015 0.000015 0.000015 0.000015 0.000024 0.000024 0.000024 0.000024 0.000024 0.000025 0.000038 0.000038 0.000038 0.000038 0.000039 0.000041 0.000057 0.000057 0.000057 0.000058 0.000062 0.000068 0.000085 0.000085 0.000085 0.000086 0.000098 0.000119 0.000122 0.000122 0.000122 0.000125 0.000160 0.000222 0.000169 0.000169 0.000169 0.000175 0.000255 0.000466 0.000221 0.000221 0.000221 0.000232 0.000371 0.000786 0.001521 0.002650 0.004162 0.006383 0.009745 0.014901 0.022846 0.035101 0.053961 0.082853 0.126815 0.193134 0.292164 0.438335 0.651348 0.957510 1.391149 1.995957 2.826141 3.947165 5.435991 7.380735 9.879933 13.041809 16.984296 21.836755 27.744393 34.875901 43.433822 53.665348 65.868867 80.389069 97.591524 117.807554 141.242830 167.849154 197.167828 228.163231 259.073448 287.306840 309.405128 321.073011 317.245268 292.135482 239.195301 150.883048 17.960779 -172.625967 -443.990119 -847.051062 -1501.321222 -2882.808766 -3507.198512 1485.788028 2697.869273 -1562.210944 -5500.476104 -11261.041818 -15791.791526 4834.642529 18789.878872 -2154.962449 -5347.065234 9068.587666 6497.573432 5181.434289 5514.899967 3699.753278 10713.547287 8644.090740 11564.377764 5655.066823 11757.855590 13552.950496 17002.287764 11690.562746 13534.782729 18013.814350 21878.657944 19917.480557 20003.763107 14356.697307 13670.242172 17536.766313 18624.776832 22836.347548 21072.229145 20319.943562 22186.985301 21874.441693 22531.838591 24760.521648 23230.459900 23564.762511 24713.352452 25504.441538 25756.719137 26422.703267 26828.927690 23076.668354 17664.427503 21387.995407 22663.670380 22663.670380 22663.670380 0.000276 0.000276 0.000276 0.000290 0.000473 0.000988 0.001713 0.002760 0.004282 0.006553 0.010004 0.015302 0.023465 0.036051 0.055405 0.085026 0.130045 0.197868 0.299000 0.448048 0.664909 0.976105 1.416164 2.028952 2.868790 4.001181 5.503033 7.462352 9.977557 13.156868 17.118470 21.992398 27.925046 35.086750 43.681841 53.958748 66.215489 80.793418 98.050467 118.305161 141.745489 168.302792 197.499782 228.291981 258.930460 286.876977 308.797323 320.644381 317.823992 295.425649 248.506164 172.419729 63.103588 -83.123869 -271.467333 -513.998322 -836.869480 -1214.820976 -1190.308741 610.839906 929.873334 -612.884689 -2273.954424 -3463.913718 -2119.088286 6504.181026 7433.444217 2734.344883 2573.130248 6144.769321 5818.367107 5975.748711 6561.710776 7355.897712 9159.550509 9594.644070 11050.930215 10633.458247 12052.847067 12578.943057 14089.036384 13252.013596 13935.276935 16603.665769 16656.274097 16087.336646 15845.371132 14421.267091 14856.889295 16972.938066 18133.245919 20243.896598 19590.169652 20186.294327 20582.193214 20422.436743 21637.617538 22728.256591 21438.809037 22248.539234 22365.739566 21727.377925 23819.143523 24901.359088 25670.068262 24721.521754 21722.501364 22103.543806 22401.032283 22401.032283 22401.032283 0.000308 0.000308 0.000308 0.000325 0.000525 0.001080 0.001815 0.002868 0.004418 0.006752 0.010309 0.015772 0.024190 0.037162 0.057093 0.087563 0.133809 0.203377 0.306942 0.459312 0.680613 0.997602 1.445038 2.066981 2.917879 4.063275 5.580024 7.556007 10.089526 13.288813 17.272363 22.170986 28.132413 35.328804 43.966408 54.294886 66.611587 81.253788 98.570446 118.865285 142.305975 168.800306 197.849134 228.395978 258.701915 286.278684 307.910430 319.786035 317.755642 297.728375 256.253340 191.362617 103.753456 -1.723869 -114.503604 -216.799118 -280.142716 -251.020529 -38.910097 311.030245 458.163431 348.080749 279.827365 615.213783 1661.265978 3022.854812 3549.634148 3611.816511 4123.388107 4944.896956 5636.860352 6344.611738 7110.281564 7928.292403 8793.717536 9554.451609 10288.898686 10958.492156 11645.141352 12290.795838 12816.780666 13256.131424 13824.082328 14369.079092 14703.591867 14961.149803 15277.697282 15562.523625 16077.652312 16796.453298 17535.440320 18195.293598 18690.957921 19265.395261 19786.719925 20229.849294 20790.998401 21382.662648 21770.625097 22299.083665 22603.296111 22644.824474 22945.491367 22932.285656 22846.638436 22770.941210 22345.005183 22203.481983 22193.728580 22193.728580 22193.728580 0.000312 0.000312 0.000312 0.000330 0.000533 0.001092 0.001831 0.002886 0.004443 0.006788 0.010364 0.015857 0.024322 0.037364 0.057400 0.088022 0.134490 0.204374 0.308378 0.461346 0.683446 1.001477 1.450238 2.073824 2.926706 4.074432 5.593850 7.572818 10.109619 13.312490 17.299981 22.203044 28.169646 35.372267 44.017488 54.355172 66.682524 81.336061 98.663112 118.964733 142.404945 168.887306 197.908700 228.410314 258.654543 286.160999 307.732728 319.596233 317.672086 297.998623 257.359130 194.204246 109.971998 10.829864 -90.283922 -171.480189 -199.704268 -131.793497 60.817012 311.444087 459.267190 498.440801 628.719132 1077.140762 1902.119984 2785.330438 3304.904218 3663.576124 4216.834255 4928.398305 5645.090806 6384.184728 7154.902564 7946.396288 8741.042254 9492.749933 10214.560492 10895.552776 11549.884100 12163.274011 12705.718957 13202.797094 13703.849763 14144.108894 14491.749957 14839.957536 15234.027983 15647.664726 16166.139968 16788.027964 17430.763038 18035.817800 18585.763630 19152.801357 19688.846903 20182.529065 20697.210007 21206.427843 21690.372469 22171.692432 22516.316328 22695.477752 22776.514480 22713.813847 22590.903531 22484.029718 22329.328440 22190.188376 22159.672325 22159.672325 22159.672325 0.000312 0.000312 0.000312 0.000330 0.000533 0.001092 0.001831 0.002886 0.004443 0.006788 0.010364 0.015857 0.024322 0.037364 0.057400 0.088022 0.134490 0.204374 0.308378 0.461346 0.683446 1.001477 1.450238 2.073824 2.926706 4.074432 5.593850 7.572818 10.109619 13.312490 17.299981 22.203044 28.169646 35.372267 44.017488 54.355172 66.682524 81.336061 98.663112 118.964733 142.404945 168.887306 197.908700 228.410314 258.654543 286.160999 307.732728 319.596233 317.672086 297.998623 257.359130 194.204246 109.971998 10.829864 -90.283922 -171.480189 -199.704268 -131.793497 60.817012 311.444087 459.267190 498.440801 628.719132 1077.140762 1902.119984 2785.330438 3304.904218 3663.576124 4216.834255 4928.398305 5645.090806 6384.184728 7154.902564 7946.396288 8741.042254 9492.749933 10214.560492 10895.552776 11549.884100 12163.274011 12705.718957 13202.797094 13703.849763 14144.108894 14491.749957 14839.957536 15234.027983 15647.664726 16166.139968 16788.027964 17430.763038 18035.817800 18585.763630 19152.801357 19688.846903 20182.529065 20697.210007 21206.427843 21690.372469 22171.692432 22516.316328 22695.477752 22776.514480 22713.813847 22590.903531 22484.029718 22329.328440 22190.188376 22159.672325 22159.672325 22159.672325 0.000312 0.000312 0.000312 0.000330 0.000533 0.001092 0.001831 0.002886 0.004443 0.006788 0.010364 0.015857 0.024322 0.037364 0.057400 0.088022 0.134490 0.204374 0.308378 0.461346 0.683446 1.001477 1.450238 2.073824 2.926706 4.074432 5.593850 7.572818 10.109619 13.312490 17.299981 22.203044 28.169646 35.372267 44.017488 54.355172 66.682524 81.336061 98.663112 118.964733 142.404945 168.887306 197.908700 228.410314 258.654543 286.160999 307.732728 319.596233 317.672086 297.998623 257.359130 194.204246 109.971998 10.829864 -90.283922 -171.480189 -199.704268 -131.793497 60.817012 311.444087 459.267190 498.440801 628.719132 1077.140762 1902.119984 2785.330438 3304.904218 3663.576124 4216.834255 4928.398305 5645.090806 6384.184728 7154.902564 7946.396288 8741.042254 9492.749933 10214.560492 10895.552776 11549.884100 12163.274011 12705.718957 13202.797094 13703.849763 14144.108894 14491.749957 14839.957536 15234.027983 15647.664726 16166.139968 16788.027964 17430.763038 18035.817800 18585.763630 19152.801357 19688.846903 20182.529065 20697.210007 21206.427843 21690.372469 22171.692432 22516.316328 22695.477752 22776.514480 22713.813847 22590.903531 22484.029718 22329.328440 22190.188376 22159.672325 22159.672325 22159.672325 -1395.322431 -1472.429307 -1581.883339 -1743.188424 -1989.419116 -2434.027284 -2206.779432 -372.819768 -146.425602 -1253.510415 -1465.615529 379.044218 885.398270 -26.034791 -779.464986 -1460.792829 -242.526196 1285.346455 437.202270 -663.225839 -1925.268410 -2972.828103 -1123.311469 1247.503921 4127.306369 2474.077245 344.425515 -1742.645069 325.788620 1409.990437 473.014393 2954.298352 5173.187297 6369.686634 6205.974776 5879.365643 7346.517305 8389.017808 7023.167369 7597.080065 9879.787014 10714.775909 12189.402696 12328.009945 12541.429265 14528.546547 15522.315466 13856.120268 13518.974310 12964.179716 11885.147568 11973.868282 13008.546638 13244.935122 13244.935122 13244.935122 -2223.495000 -550.239482 4572.118408 16291.164954 13785.987620 13446.234760 6682.415018 20951.181566 14408.061738 6673.348206 15680.921308 15893.668660 13777.689378 14171.921480 14840.465649 14082.376489 13624.116429 13870.018690 15075.163980 13721.693944 12629.526418 14618.937599 11832.591702 13904.253706 11400.413627 12159.402683 15286.519158 11600.818176 12127.249499 11974.487394 12763.555509 15453.310508 13029.224923 12390.468266 12708.877468 13562.898222 11892.750401 13165.351004 13179.221066 14193.001231 13664.365299 16583.962930 14216.543991 15278.848542 12854.951315 15012.528269 11652.266958 14123.810336 13168.561102 13656.742943 15516.406192 12425.676770 13219.885816 13362.593714 13362.593714 13362.593714 171.500932 -2540.822938 15185.674331 7061.061101 14484.611555 11408.416003 15399.744060 10714.258172 14529.240148 12534.434299 14117.686055 19338.663329 12985.661058 16545.107346 15629.174428 14120.668493 14786.535015 13652.733509 15599.196649 11473.341497 14068.132177 13843.150250 10950.312970 13465.461040 13312.476755 13454.808620 15221.487262 14917.612004 14210.278216 11343.122886 12954.559943 11631.786764 13950.647669 13537.674621 12608.532722 10955.913052 14754.915140 12759.259554 11024.700721 15214.988951 10982.731467 13499.220930 11607.370245 13322.620984 9611.478442 11085.447134 12668.550973 14549.961770 10867.778657 14767.858921 15152.537374 14006.242281 13592.638308 13737.049522 13737.049522 13737.049522 896.231696 3140.741551 17179.097371 17156.541705 14996.460668 16033.537442 13127.078588 15364.769875 12275.334000 15842.695489 17994.466495 16005.911451 14452.471634 14484.043701 21498.954616 14409.667524 13134.462541 15156.876573 15557.954667 15989.861977 18259.696070 17335.822674 12809.124685 12063.519190 16604.046056 13026.240073 12750.042008