<VTKFile type="PolyData">
<PolyData>
<Piece NumberOfPoints="8632" NumberOfVerts="8632" NumberOfLines="0" NumberOfStrips="0" NumberOfPolys="0">
<PointData>
<DataArray type="Float64" Name="Pressure" format="ascii">
 -0.003545 -0.003545 -0.003545 -0.003766 -0.006300 -0.013273 -0.022357 -0.034839 -0.052150 -0.076258 -0.109859 -0.156567 -0.221173 -0.309979 -0.431203 -0.595472 -0.816405 -1.111294 -1.501879 -2.015228 -2.684699 -3.550974 -4.663146 -6.079811 -7.870129 -10.114798 -12.906881 -16.352409 -20.570723 -25.694472 -31.869252 -39.252867 -48.014242 -58.332043 -70.393136 -84.390998 -100.524290 -118.995733 -140.011458 -163.780890 -190.517151 -220.437796 -253.765541 -290.728472 -331.559064 -376.491233 -425.754562 -479.564633 -538.107773 -601.516302 -669.823882 -742.872788 -820.099524 -900.027199 -979.127334 -1050.246053 -1101.827587 -1116.832552 -1069.650258 -938.066306 -756.162264 -601.104818 -466.684932 -312.361174 -185.901121 -153.302827 -178.441672 -179.176616 -116.260894 -48.154001 -38.827551 -39.592181 23.604084 124.823865 188.635998 245.356633 353.344806 462.329234 502.498201 506.427815 559.380017 707.033428 895.286839 1044.013158 1174.383009 1376.986418 1708.078444 2118.892244 2543.558825 3033.292383 3681.276304 4481.169998 5325.875562 6138.192560 6914.612540 7673.892469 8420.208029 9134.553201 9808.814111 10454.313782 11070.371223 11652.164515 12189.709506 12648.310275 13027.657262 13397.162180 13797.334622 14090.040102 14147.340846 14147.340846 14147.340846 -0.003545 -0.003545 -0.003545 -0.003766 -0.006300 -0.013273 -0.022357 -0.034839 -0.052150 -0.076258 -0.109859 -0.156567 -0.221173 -0.309979 -0.431203 -0.595472 -0.816405 -1.111294 -1.501879 -2.015228 -2.684699 -3.550974 -4.663146 -6.079811 -7.870129 -10.114798 -12.906881 -16.352409 -20.570723 -25.694472 -31.869252 -39.252867 -48.014242 -58.332043 -70.393136 -84.390998 -100.524290 -118.995733 -140.011458 -163.780890 -190.517151 -220.437796 -253.765541 -290.728472 -331.559064 -376.491233 -425.754562 -479.564633 -538.107773 -601.516302 -669.823882 -742.872788 -820.099524 -900.027199 -979.127334 -1050.246053 -1101.827587 -1116.832552 -1069.650258 -938.066306 -756.162264 -601.104818 -466.684932 -312.361174 -185.901121 -153.302827 -178.441672 -179.176616 -116.260894 -48.154001 -38.827551 -39.592181 23.604084 124.823865 188.635998 245.356633 353.344806 462.329234 502.498201 506.427815 559.380017 707.033428 895.286839 1044.013158 1174.383009 1376.986418 1708.078444 2118.892244 2543.558825 3033.292383 3681.276304 4481.169998 5325.875562 6138.192560 6914.612540 7673.892469 8420.208029 9134.553201 9808.814111 10454.313782 11070.371223 11652.164515 12189.709506 12648.310275 13027.657262 13397.162180 13797.334622 14090.040102 14147.340846 14147.340846 14147.340846 -0.003545 -0.003545 -0.003545 -0.003766 -0.006300 -0.013273 -0.022357 -0.034839 -0.052150 -0.076258 -0.109859 -0.156567 -0.221173 -0.309979 -0.431203 -0.595472 -0.816405 -1.111294 -1.501879 -2.015228 -2.684699 -3.550974 -4.663146 -6.079811 -7.870129 -10.114798 -12.906881 -16.352409 -20.570723 -25.694472 -31.869252 -39.252867 -48.014242 -58.332043 -70.393136 -84.390998 -100.524290 -118.995733 -140.011458 -163.780890 -190.517151 -220.437796 -253.765541 -290.728472 -331.559064 -376.491233 -425.754562 -479.564633 -538.107773 -601.516302 -669.823882 -742.872788 -820.099524 -900.027199 -979.127334 -1050.246053 -1101.827587 -1116.832552 -1069.650258 -938.066306 -756.162264 -601.104818 -466.684932 -312.361174 -185.901121 -153.302827 -178.441672 -179.176616 -116.260894 -48.154001 -38.827551 -39.592181 23.604084 124.823865 188.635998 245.356633 353.344806 462.329234 502.498201 506.427815 559.380017 707.033428 895.286839 1044.013158 1174.383009 1376.986418 1708.078444 2118.892244 2543.558825 3033.292383 3681.276304 4481.169998 5325.875562 6138.192560 6914.612540 7673.892469 8420.208029 9134.553201 9808.814111 10454.313782 11070.371223 11652.164515 12189.709506 12648.310275 13027.657262 13397.162180 13797.334622 14090.040102 14147.340846 14147.340846 14147.340846 -0.003506 -0.003506 -0.003506 -0.003721 -0.006228 -0.013136 -0.022209 -0.034714 -0.052032 -0.076118 -0.109675 -0.156318 -0.220838 -0.309530 -0.430606 -0.594686 -0.815378 -1.109963 -1.500170 -2.013052 -2.681952 -3.547538 -4.658886 -6.074577 -7.863757 -10.107114 -12.897698 -16.341539 -20.557975 -25.679660 -31.852201 -39.233418 -47.992254 -58.307399 -70.365738 -84.360772 -100.491176 -118.959681 -139.972418 -163.738807 -190.471959 -220.389424 -253.713931 -290.673623 -331.501132 -376.430757 -425.692968 -479.505454 -538.059616 -601.500210 -669.891636 -743.151940 -820.899772 -902.066613 -983.670668 -1058.970491 -1116.744443 -1142.779987 -1108.074673 -964.522979 -746.608420 -601.279201 -478.251245 -305.154774 -148.844794 -133.738140 -187.687751 -203.795154 -120.188290 -27.453430 -36.098345 -65.540167 6.281328 136.727922 188.569312 220.898474 347.676663 483.408149 510.790523 482.203580 513.947897 678.616716 895.779350 1034.346538 1128.415645 1303.940499 1649.478486 2085.168547 2489.325994 2938.582442 3580.730489 4420.728204 5295.000377 6111.055277 6887.417652 7646.296156 8411.198922 9157.872064 9859.799270 10531.737974 11157.232286 11724.552481 12243.264273 12678.393826 13009.715941 13353.705987 13768.842368 14081.201170 14141.108855 14141.108855 14141.108855 -0.003095 -0.003095 -0.003095 -0.003261 -0.005361 -0.011307 -0.020319 -0.033417 -0.050850 -0.074724 -0.107843 -0.153846 -0.217503 -0.305060 -0.424663 -0.586850 -0.805136 -1.096691 -1.483119 -1.991337 -2.654540 -3.513241 -4.616360 -6.022325 -7.800140 -10.030374 -12.805986 -16.232954 -20.430615 -25.531669 -31.681826 -39.039061 -47.772509 -58.061084 -70.091897 -84.058652 -100.160186 -118.599318 -139.582191 -163.318164 -190.020246 -219.905924 -253.198040 -290.125296 -330.921866 -375.825752 -425.076093 -478.911041 -537.571297 -601.322444 -670.528084 -745.849203 -828.736550 -922.408584 -1033.896039 -1158.382434 -1282.608200 -1430.265128 -1611.813625 -1277.859885 -486.526658 -518.582407 -769.701401 -265.726739 435.522774 134.551663 -315.539845 -654.859224 -201.958770 436.710195 28.632045 -505.532608 -332.124327 495.168228 247.302965 -251.402655 231.258651 901.832222 655.304643 178.642704 -148.461343 267.393844 1061.820483 992.862309 582.507512 319.007641 888.225457 1868.970370 1922.052655 1750.207567 2282.892383 3742.648381 5042.657268 5893.258829 6700.433772 7415.105625 8337.443112 9520.131149 10556.699450 11504.188835 12185.948207 12372.252160 12524.807843 12710.515708 12465.407363 12487.661320 13239.320605 13943.774116 14070.217375 14070.217375 14070.217375 -0.002552 -0.002552 -0.002552 -0.002675 -0.004124 -0.008155 -0.016372 -0.031430 -0.049403 -0.073123 -0.105773 -0.151066 -0.213753 -0.300032 -0.417975 -0.578027 -0.793596 -1.081726 -1.463881 -1.966822 -2.623575 -3.474477 -4.568267 -5.963199 -7.728116 -9.943447 -12.702048 -16.109839 -20.286149 -25.363735 -31.488423 -38.818363 -47.522917 -57.781252 -69.780741 -83.715326 -99.784027 -118.189773 -139.138719 -162.840153 -189.506976 -219.356616 -252.612102 -289.502930 -330.265448 -375.142964 -424.387215 -478.266513 -537.094869 -601.318523 -671.750745 -750.181618 -840.936604 -954.884548 -1120.864213 -1299.714487 -1484.325776 -1784.596877 -2338.147712 -1825.633442 -174.407307 -395.231474 -1339.283193 -361.571282 1265.212531 546.701531 -548.526121 -1560.570259 -427.542000 1379.194928 253.143502 -1485.393544 -1113.089847 1489.847344 517.232533 -1577.383089 -9.669260 2132.626605 1027.796975 -256.229545 -1581.708691 -540.454028 1957.139554 1233.085343 -152.115693 -1630.962335 -412.333169 2375.825695 1494.980301 -256.244382 -574.230964 3331.761234 5582.829946 5552.412885 7664.283874 7919.470208 7436.728465 10707.794550 11574.124649 13176.702282 13295.276763 12663.320012 10649.495275 12100.594183 10304.601546 9185.956230 11446.073246 13669.942634 13963.846945 13963.846945 13963.846945 -0.002481 -0.002481 -0.002481 -0.002598 -0.003962 -0.007670 -0.002037 -0.002037 -0.002037 -0.002111 -0.002964 -0.004881 -0.001433 -0.001433 -0.001433 -0.001465 -0.001804 -0.002379 -0.000972 -0.000972 -0.000972 -0.000984 -0.001101 -0.001290 -0.000645 -0.000645 -0.000645 -0.000649 -0.000684 -0.000743 -0.000421 -0.000421 -0.000421 -0.000422 -0.000430 -0.000446 -0.000271 -0.000271 -0.000271 -0.000271 -0.000271 -0.000273 -0.000173 -0.000173 -0.000173 -0.000173 -0.000171 -0.000169 -0.000110 -0.000110 -0.000110 -0.000110 -0.000108 -0.000105 -0.000069 -0.000069 -0.000069 -0.000069 -0.000067 -0.000066 -0.000043 -0.000043 -0.000043 -0.000043 -0.000042 -0.000041 -0.000027 -0.000027 -0.000027 -0.000027 -0.000026 -0.000025 -0.000016 -0.000016 -0.000016 -0.000016 -0.000016 -0.000015 -0.000010 -0.000010 -0.000010 -0.000010 -0.000010 -0.000009 -0.000006 -0.000006 -0.000006 -0.000006 -0.000006 -0.000006 -0.000004 -0.000004 -0.000004 -0.000004 -0.000004 -0.000003 -0.000002 -0.000002 -0.000002 -0.000002 -0.000002 -0.000002 -0.000001 -0.000001 -0.000001 -0.000001 -0.000001 -0.000001 -0.000001 -0.000001 -0.000001 -0.000001 -0.000001 -0.000001 -0.000000 -0.000000 -0.000000 -0.000000 -0.000000 -0.000000 -0.000000 -0.000000 -0.000000 -0.000000 -0.000000 -0.000000 -0.000000 -0.000000 -0.000000 -0.000000 -0.000000 -0.000000 -0.000000 -0.000000 -0.000000 -0.000000 -0.000000 -0.000000 -0.000000 -0.000000 -0.000000 -0.000000 -0.000000 -0.000000 -0.000000 -0.000000 -0.000000 -0.000000 -0.000000 -0.000000 -0.000000 -0.000000 -0.000000 -0.000000 -0.000000 -0.000000 -0.000000 -0.000000 -0.000000 -0.000000 -0.000000 -0.000000 -0.000000 -0.000000 -0.000000 -0.000000 -0.000000 -0.000000 -0.000000 -0.000000 -0.000000 -0.000000 -0.000000 -0.000000 -0.000000 -0.000000 -0.000000 -0.000000 -0.000000 -0.000000 -0.000000 -0.000000 -0.000000 -0.000000 -0.000000 -0.000000 -0.000000 -0.000000 -0.000000 -0.000000 0.000000 -0.000000 0.000000 0.000000 0.000000 -0.000000 0.000000 0.000000 0.000000 0.000000 0.000000 -0.000000 0.000000 0.000000 0.000000 0.000000 0.000000 -0.000000 0.000000 0.000000 0.000000 0.000000 0.000000 -0.000000 0.000000 0.000000 0.000000 0.000000 0.000000 -0.000000 0.000000 0.000000 0.000000 0.000000 0.000000 -0.000000 0.000000 0.000000 0.000000 0.000000 0.000000 0.000000 0.000000 0.000000 0.000000 0.000000 0.000000 -0.000000 -0.000000 0.000000 -0.000000 -0.000000 -0.000000 -0.000000 -0.000000 -0.000000 -0.000000 -0.000000 -0.000000 -0.000000 -0.000000 -0.000000 -0.000000 -0.000000 -0.000000 -0.000000 -0.000000 -0.000000 -0.000000 -0.000000 -0.000000 -0.000000 -0.000000 -0.000000 -0.000000 -0.000000 -0.000000 -0.000000 -0.000000 -0.000000 -0.000000 -0.000000 -0.000000 -0.000000 -0.000000 -0.000000 -0.000000 -0.000000 -0.000000 -0.000000 -0.000000 -0.000000 -0.000000 -0.000000 -0.000000 -0.000000 -0.000000 -0.000000 -0.000000 -0.000000 -0.000000 -0.000000 -0.000000 -0.000000 -0.000000 -0.000000 -0.000000 -0.000000 -0.000000 -0.000000 -0.000000 -0.000000 -0.000000 -0.000000 -0.000000 -0.000000 -0.000000 -0.000000 -0.000000 -0.000000 -0.000000 -0.000000 -0.000000 -0.000000 -0.000000 -0.000000 -0.000000 -0.000000 -0.000000 -0.000000 -0.000000 -0.000000 -0.000000 -0.000000 -0.000000 -0.000000 -0.000000 -0.000000 -0.000000 -0.000000 -0.000000 -0.000000 -0.000000 -0.000000 -0.000000 -0.000000 -0.000000 -0.000000 -0.000000 -0.000000 -0.000000 -0.000000 -0.000000 -0.000000 -0.000000 -0.000000 -0.000000 -0.000000 -0.000000 -0.000000 -0.000000 -0.000000 -0.000000 -0.000000 -0.000000 -0.000000 -0.000000 -0.000000 -0.000000 -0.000000 -0.000000 -0.000000 -0.000000 -0.000000 -0.000000 -0.000000 -0.000000 -0.000000 -0.000000 -0.000000 -0.000000 -0.000000 -0.000000 -0.000000 -0.000000 -0.000000 -0.000000 -0.000000 -0.000000 -0.000000 -0.000000 -0.000000 -0.000000 -0.000000 -0.000000 -0.000000 -0.000000 -0.000000 -0.000000 -0.000000 -0.000000 -0.000000 -0.000000 -0.000000 -0.000000 -0.000000 -0.000000 -0.000000 -0.000000 -0.000000 -0.000000 -0.000000 -0.000000 -0.000000 -0.000000 -0.000000 -0.000000 -0.000000 -0.000000 -0.000000 -0.000000 -0.000000 -0.000000 -0.000000 -0.000000 -0.000000 -0.000000 -0.000000 -0.000000 -0.000000 -0.000000 -0.000000 -0.000000 -0.000000 -0.000000 -0.000000 -0.000000 -0.000000 -0.000000 -0.000000 -0.000000 -0.000000 -0.000000 -0.000000 -0.000000 -0.000000 -0.000000 -0.000000 -0.000000 -0.000000 -0.000000 -0.000000 -0.000000 -0.000000 -0.000000 -0.000000 -0.000000 -0.000000 -0.000000 -0.000000 -0.000000 -0.000000 -0.000000 -0.000000 -0.000000 -0.000000 -0.000000 -0.000000 -0.000000 -0.000000 -0.000000 -0.000000 -0.000000 -0.000000 -0.000000 -0.000000 -0.000000 -0.000000 -0.000000 -0.000000 -0.000000 -0.000000 -0.000000 -0.000000 -0.000000 -0.000000 -0.000000 -0.000000 -0.000000 -0.000000 -0.000000 -0.000000 -0.000000 -0.000000 -0.000000 -0.000000 -0.000000 -0.000000 -0.000000 -0.000000 -0.000000 -0.000000 -0.000000 -0.000000 -0.000000 -0.000000 -0.000000 -0.000000 -0.000000 -0.000000 -0.000000 -0.000000 -0.000000 -0.000000 -0.000000 -0.000000 -0.000000 -0.000000 -0.000000 -0.000000 -0.000000 -0.000000 -0.000000 -0.000000 -0.000000 -0.000000 -0.000000 -0.000000 -0.000000 -0.000000 -0.000000 -0.000000 -0.000000 -0.000000 -0.000000 -0.000000 -0.000000 -0.000000 -0.000000 -0.000000 -0.000000 -0.000000 -0.000000 -0.000000 -0.000000 -0.000000 -0.000000 -0.000000 -0.000000 -0.000000 -0.000000 -0.000000 -0.000000 -0.000000 -0.000000 -0.000000 -0.000000 -0.000000 -0.000000 -0.000000 -0.000000 -0.000000 -0.000000 -0.000000 -0.000000 -0.000000 -0.000000 -0.000000 -0.000000 -0.000000 -0.000000 -0.000000 -0.000000 -0.000000 -0.000000 -0.000000 -0.000000 -0.000000 -0.000000 -0.000000 -0.000000 -0.000000 -0.000000 -0.000000 -0.000000 -0.000000 -0.000000 -0.000000 -0.000000 -0.000000 -0.000000 -0.000000 -0.000000 -0.000000 -0.000000 -0.000000 -0.000000 -0.000000 -0.000000 -0.000000 -0.000000 -0.000000 -0.000000 -0.000000 -0.000000 -0.000000 -0.000000 -0.000000 -0.000000 -0.000000 -0.000000 -0.000000 -0.000000 -0.000000 -0.000000 -0.000000 -0.000000 -0.000000 -0.000000 -0.000000 -0.000000 -0.000000 -0.000000 -0.000000 -0.000000 -0.000000 -0.000000 -0.000000 -0.000000 -0.000000 -0.000000 -0.000000 -0.000000 -0.000000 -0.000000 -0.000000 -0.000000 -0.000000 -0.000000 -0.000000 -0.000000 -0.000000 -0.000000 -0.000000 -0.000000 -0.000000 -0.000000 -0.000000 -0.000000 -0.000000 -0.000000 -0.000000 -0.000000 -0.000000 -0.000000 -0.000000 -0.000000 -0.000000 -0.000000 -0.000000 -0.000000 -0.000000 -0.000000 -0.000000 -0.000000 -0.000000 -0.000000 -0.000000 -0.000000 -0.000000 -0.000000 -0.000000 -0.000000 -0.000000 -0.000000 -0.000000 -0.000000 -0.000000 -0.000000 -0.000000 -0.000000 -0.000000 -0.000000 -0.000000 -0.000000 -0.000000 -0.000000 -0.000000 -0.000000 -0.000000 -0.000000 -0.000000 -0.000000 -0.000000 -0.000000 -0.000000 -0.000000 -0.000000 -0.000000 -0.000000 -0.000000 -0.000000 -0.000000 -0.000000 -0.000000 -0.000000 -0.000000 -0.000000 -0.000000 -0.000000 -0.000000 -0.000000 -0.000000 -0.000000 -0.000000 -0.000000 -0.000000 -0.000000 -0.000000 -0.000000 -0.000000 -0.000000 -0.000000 -0.000000 -0.000000 -0.000000 -0.000000 -0.000000 -0.000000 -0.000000 -0.000000 -0.000000 -0.000000 -0.000000 -0.000000 -0.000000 -0.000000 -0.000000 -0.000000 -0.000000 -0.000000 -0.000000 -0.000000 -0.000000 -0.000000 -0.000000 -0.000000 -0.000000 -0.000000 -0.000000 -0.000000 -0.000000 -0.000000 -0.000000 -0.000000 -0.000000 -0.000000 -0.000000 -0.000000 -0.000000 -0.000000 -0.000000 -0.000000 -0.000000 -0.000000 -0.000000 -0.000000 -0.000000 -0.000000 -0.000000 -0.000000 -0.000000 -0.000000 -0.000000 -0.000000 -0.000000 -0.000000 -0.000000 -0.000000 -0.000000 -0.000000 -0.000000 -0.000000 -0.000000 -0.000000 -0.000000 -0.000000 -0.000000 -0.000000 -0.000000 -0.000000 -0.000000 -0.000000 -0.000000 -0.000000 -0.000000 -0.000000 -0.000000 -0.000000 -0.000000 -0.000000 -0.000000 -0.000000 -0.000000 -0.000000 -0.000000 -0.000000 -0.000000 -0.000000 -0.000000 -0.000000 -0.000000 -0.000000 -0.000000 -0.000000 -0.000000 -0.000000 -0.000000 -0.000000 -0.000000 -0.000000 -0.000000 -0.000000 -0.000000 -0.000000 -0.000000 -0.000000 -0.000000 -0.000000 -0.000000 -0.000000 -0.000000 -0.000000 -0.000000 -0.000000 -0.000000 -0.000000 -0.000000 -0.000000 -0.000000 -0.000000 -0.000000 -0.000000 -0.000000 -0.000000 -0.000000 -0.000000 -0.000000 -0.000000 -0.000000 -0.000000 -0.000000 -0.000000 -0.000000 -0.000000 -0.000000 -0.000000 -0.000000 -0.000000 -0.000000 -0.000000 -0.000000 -0.000000 -0.000000 -0.000000 -0.000000 -0.000000 -0.000000 -0.000000 -0.000000 -0.000000 -0.000000 -0.000000 -0.000000 -0.000000 -0.000000 -0.000000 -0.000000 -0.000000 -0.000000 -0.000000 -0.000000 -0.000000 -0.000000 -0.000000 -0.000000 -0.000000 -0.000000 -0.000000 -0.000000 -0.000000 -0.000000 -0.000000 -0.000000 -0.000000 -0.000000 -0.000000 -0.000000 -0.000000 -0.000000 -0.000000 -0.000000 -0.000000 -0.000000 -0.000000 -0.000000 -0.000000 -0.000000 -0.000000 -0.000000 -0.000000 -0.000000 -0.000000 -0.000000 -0.000000 -0.000000 -0.000000 -0.000000 -0.000000 -0.000000 -0.000000 -0.000000 -0.000000 -0.000000 -0.000000 -0.000000 -0.000000 -0.000000 -0.000000 -0.000000 -0.000000 -0.000000 -0.000000 -0.000000 -0.000000 -0.000000 -0.000000 -0.000000 -0.000000 -0.000000 -0.000000 -0.000000 -0.000000 -0.000000 -0.000000 -0.000000 -0.000000 -0.000000 -0.000000 -0.000000 -0.000000 -0.000000 -0.000000 -0.000000 -0.000000 -0.000000 -0.000000 -0.000000 -0.000000 -0.000000 -0.000000 -0.000000 -0.000000 -0.000000 -0.000000 -0.000000 -0.000000 -0.000000 -0.000000 -0.000000 -0.000000 -0.000000 -0.000000 -0.000000 0.000000 -0.000000 -0.000000 -0.000000 -0.000000 -0.000000 -0.000000 -0.000000 -0.000000 -0.000000 -0.000000 -0.000000 -0.000000 -0.000000 -0.000000 -0.000000 -0.000000 -0.000000 -0.000000 -0.000000 -0.000000 -0.000000 -0.000000 -0.000000 -0.000000 -0.000000 -0.000000 -0.000000 -0.000000 -0.000000 -0.000000 -0.000000 -0.000000 -0.000000 -0.000000 -0.000000 -0.000000 -0.000000 -0.000000 -0.000000 -0.000000 -0.000000 -0.000000 -0.000000 -0.000000 -0.000000 -0.000000 -0.000000 -0.000000 -0.000000 -0.000000 -0.000000 -0.000000 -0.000000 -0.000000 -0.000000 -0.000000 -0.000000 -0.000000 -0.000000 -0.000000 -0.000000 -0.000000 -0.000000 -0.000000 -0.000000 -0.000000 -0.000000 -0.000000 -0.000000 -0.000000 -0.000000 -0.000000 -0.000000 -0.000000 -0.000000 -0.000000 -0.000000 -0.000000 -0.000000 -0.000000 -0.000000 -0.000000 -0.000000 -0.000000 -0.000000 -0.000000 -0.000000 -0.000000 -0.000000 -0.000000 -0.000000 -0.000000 -0.000000 -0.000000 -0.000000 -0.000000 -0.000000 -0.000000 -0.000000 -0.000000 -0.000000 -0.000000 -0.000000 -0.000000 -0.000000 -0.000000 -0.000000 -0.000000 -0.000000 -0.000000 -0.000000 -0.000000 -0.000000 -0.000000 -0.000000 -0.000000 -0.000000 -0.000000 -0.000000 -0.000000 -0.000000 -0.000000 -0.000000 -0.000000 -0.000000 -0.000000 -0.000000 -0.000000 -0.000000 -0.000000 -0.000000 -0.000000 -0.000000 -0.000000 -0.000000 -0.000000 -0.000000 -0.000000 -0.000000 -0.000000 -0.000000 -0.000000 -0.000000 -0.000000 -0.000000 -0.000000 -0.000000 -0.000000 -0.000000 -0.000000 -0.000000 -0.000000 -0.000000 -0.000000 -0.000000 -0.000000 -0.000000 -0.000000 -0.000000 -0.000000 -0.000000 -0.000000 -0.000000 -0.000000 -0.000000 -0.000000 -0.000000 -0.000000 -0.000000 -0.000000 -0.000000 -0.000000 -0.000000 -0.000000 -0.000000 -0.000000 -0.000000 -0.000000 -0.000000 -0.000000 -0.000000 -0.000000 -0.000000 -0.000000 -0.000000 -0.000000 -0.000000 -0.000000 -0.000000 -0.000000 -0.000000 -0.000000 -0.000000 -0.000000 -0.000000 -0.000000 -0.000000 -0.000000 -0.000000 -0.000000 -0.000000 -0.000000 -0.000000 -0.000000 -0.000000 -0.000000 -0.000000 -0.000000 -0.000000 -0.000000 -0.000000 -0.000000 -0.000000 -0.000000 -0.000000 -0.000000 -0.000000 -0.000000 -0.000000 -0.000000 0.000000 -0.000000 -0.000000 -0.000000 -0.000000 -0.000000 -0.000000 -0.000000 -0.000000 -0.000000 -0.000000 -0.000000 -0.000000 -0.000000 -0.000000 0.000000 0.000000 0.000000 0.000000 -0.000000 -0.000000 -0.000000 -0.000000 -0.000000 -0.000000 -0.000000 -0.000000 -0.000000 -0.000000 -0.000001 -0.000001 -0.000001 -0.000002 -0.000004 -0.000006 -0.000009 -0.000015 -0.000023 -0.000036 -0.000056 -0.000085 -0.000129 -0.000193 -0.000287 -0.000424 -0.000618 -0.000894 -0.001279 -0.001811 -0.002535 -0.003507 -0.004790 -0.006452 -0.008557 -0.011154 -0.014249 -0.017771 -0.021512 -0.025037 -0.027556 -0.027743 -0.023470 -0.011457 0.013219 0.057767 0.132539 0.252135 0.436814 0.714282 1.121898 1.709382 2.542068 3.704766 5.306270 7.484523 10.412448 14.304396 19.423109 26.087025 34.677590 45.646082 59.519158 76.902059 98.478176 125.003783 157.297545 196.226397 242.693062 297.635523 362.053679 437.078742 524.089316 624.844219 741.531735 876.489170 1030.997879 1201.708081 1371.281275 1484.733830 1378.964055 713.698887 -256.559372 -278.031299 643.595304 1295.874781 2206.022567 2064.011581 3620.790136 4101.555568 5026.819883 5471.902009 5410.594558 6940.949779 6917.196482 7329.714361 8033.827219 8021.272555 9179.503832 8371.299774 10336.629779 10891.881930 10214.516179 12395.078155 12913.974292 12913.974292 12913.974292 0.000000 0.000000 0.000000 0.000000 -0.000000 -0.000000 -0.000000 -0.000000 -0.000000 -0.000000 -0.000000 -0.000000 -0.000000 -0.000000 -0.000001 -0.000001 -0.000001 -0.000002 -0.000004 -0.000006 -0.000010 -0.000015 -0.000024 -0.000037 -0.000057 -0.000087 -0.000132 -0.000197 -0.000293 -0.000432 -0.000630 -0.000910 -0.001301 -0.001839 -0.002572 -0.003553 -0.004846 -0.006518 -0.008630 -0.011229 -0.014315 -0.017808 -0.021488 -0.024900 -0.027230 -0.027111 -0.022365 -0.009640 0.016081 0.062131 0.139026 0.261570 0.450287 0.733206 1.148083 1.745118 2.590212 3.768841 5.390559 7.594169 10.553544 14.484062 19.649547 26.369514 35.026423 46.072376 60.034514 77.518016 99.205479 125.851561 158.272653 197.333397 243.935425 299.018475 363.588194 438.784276 525.990294 626.954935 743.836047 878.978320 1034.037129 1207.653787 1390.204878 1553.399126 1638.557773 1597.179124 1524.167699 1606.680194 1976.015013 2446.318602 3072.194128 3479.544466 4333.837818 5101.216915 5717.514339 5777.525909 5925.541620 6927.316986 7381.984812 7988.976343 8486.084438 8591.155739 9008.990849 8215.257611 9133.273381 10372.041631 11167.720988 12517.069072 12800.017182 12800.017182 12800.017182 0.000000 0.000000 0.000000 -0.000000 -0.000000 -0.000000 -0.000000 -0.000000 -0.000000 -0.000000 -0.000000 -0.000000 -0.000000 -0.000000 -0.000001 -0.000001 -0.000001 -0.000002 -0.000004 -0.000006 -0.000010 -0.000016 -0.000025 -0.000038 -0.000059 -0.000089 -0.000135 -0.000202 -0.000301 -0.000442 -0.000644 -0.000928 -0.001325 -0.001872 -0.002614 -0.003606 -0.004910 -0.006593 -0.008714 -0.011313 -0.014388 -0.017846 -0.021453 -0.024733 -0.026839 -0.026362 -0.021064 -0.007510 0.019425 0.067219 0.146574 0.272534 0.465921 0.755140 1.178403 1.786457 2.645859 3.842842 5.487833 7.720618 10.716157 14.691002 19.910202 26.694503 35.427503 46.562227 60.626334 78.224900 100.039595 126.823236 159.389703 198.601226 245.358588 300.604170 365.351140 440.750321 528.193286 629.420877 746.560178 881.956530 1037.610811 1214.012764 1408.348949 1612.959103 1817.579422 2021.702776 2252.112554 2556.379487 2960.406406 3452.561880 4014.955505 4630.571932 5309.745810 6005.921197 6659.532783 7235.231768 7808.470809 8415.212374 8966.168287 9436.796688 9807.511735 10070.198972 10275.393557 10389.087552 10764.887529 11375.524681 12092.581781 12686.926484 12804.364742 12804.364742 12804.364742 -0.000000 -0.000000 -0.000000 -0.000000 -0.000000 -0.000000 -0.000000 -0.000000 -0.000000 -0.000000 -0.000000 -0.000000 -0.000000 -0.000000 -0.000001 -0.000001 -0.000002 -0.000002 -0.000004 -0.000006 -0.000010 -0.000016 -0.000025 -0.000038 -0.000059 -0.000090 -0.000136 -0.000203 -0.000302 -0.000444 -0.000646 -0.000932 -0.001330 -0.001878 -0.002621 -0.003615 -0.004922 -0.006606 -0.008728 -0.011328 -0.014400 -0.017853 -0.021446 -0.024702 -0.026767 -0.026226 -0.020827 -0.007123 0.020031 0.068141 0.147940 0.274516 0.468746 0.759100 1.183874 1.793913 2.655889 3.856175 5.505351 7.743381 10.745420 14.728229 19.957076 26.752925 35.499580 46.650226 60.732612 78.351794 100.189271 126.997534 159.590023 198.828558 245.613811 300.888700 365.667833 441.104159 528.590886 629.867761 747.056587 882.501536 1038.255749 1215.094436 1411.230761 1621.825709 1841.934270 2075.098884 2341.584617 2671.979901 3086.283697 3583.428906 4152.518846 4780.803937 5458.933863 6154.653708 6825.526948 7451.094910 8059.679347 8658.564369 9201.066253 9659.723420 10024.303500 10303.757611 10527.286322 10748.322769 11094.692623 11602.453418 12225.635701 12710.992880 12809.271927 12809.271927 12809.271927 -0.000000 -0.000000 -0.000000 -0.000000 -0.000000 -0.000000 -0.000000 -0.000000 -0.000000 -0.000000 -0.000000 -0.000000 -0.000000 -0.000000 -0.000001 -0.000001 -0.000002 -0.000002 -0.000004 -0.000006 -0.000010 -0.000016 -0.000025 -0.000038 -0.000059 -0.000090 -0.000136 -0.000203 -0.000302 -0.000444 -0.000646 -0.000932 -0.001330 -0.001878 -0.002621 -0.003615 -0.004922 -0.006606 -0.008728 -0.011328 -0.014400 -0.017853 -0.021446 -0.024702 -0.026767 -0.026226 -0.020827 -0.007123 0.020031 0.068141 0.147940 0.274516 0.468746 0.759100 1.183874 1.793913 2.655889 3.856175 5.505351 7.743381 10.745420 14.728229 19.957076 26.752925 35.499580 46.650226 60.732612 78.351794 100.189271 126.997534 159.590023 198.828558 245.613811 300.888700 365.667833 441.104159 528.590886 629.867761 747.056587 882.501536 1038.255749 1215.094436 1411.230761 1621.825709 1841.934270 2075.098884 2341.584617 2671.979901 3086.283697 3583.428906 4152.518846 4780.803937 5458.933863 6154.653708 6825.526948 7451.094910 8059.679347 8658.564369 9201.066253 9659.723420 10024.303500 10303.757611 10527.286322 10748.322769 11094.692623 11602.453418 12225.635701 12710.992880 12809.271927 12809.271927 12809.271927 -0.000000 -0.000000 -0.000000 -0.000000 -0.000000 -0.000000 -0.000000 -0.000000 -0.000000 -0.000000 -0.000000 -0.000000 -0.000000 -0.000000 -0.000001 -0.000001 -0.000002 -0.000002 -0.000004 -0.000006 -0.000010 -0.000016 -0.000025 -0.000038 -0.000059 -0.000090 -0.000136 -0.000203 -0.000302 -0.000444 -0.000646 -0.000932 -0.001330 -0.001878 -0.002621 -0.003615 -0.004922 -0.006606 -0.008728 -0.011328 -0.014400 -0.017853 -0.021446 -0.024702 -0.026767 -0.026226 -0.020827 -0.007123 0.020031 0.068141 0.147940 0.274516 0.468746 0.759100 1.183874 1.793913 2.655889 3.856175 5.505351 7.743381 10.745420 14.728229 19.957076 26.752925 35.499580 46.650226 60.732612 78.351794 100.189271 126.997534 159.590023 198.828558 245.613811 300.888700 365.667833 441.104159 528.590886 629.867761 747.056587 882.501536 1038.255749 1215.094436 1411.230761 1621.825709 1841.934270 2075.098884 2341.584617 2671.979901 3086.283697 3583.428906 4152.518846 4780.803937 5458.933863 6154.653708 6825.526948 7451.094910 8059.679347 8658.564369 9201.066253 9659.723420 10024.303500 10303.757611 10527.286322 10748.322769 11094.692623 11602.453418 12225.635701 12710.992880 12809.271927 12809.271927 12809.271927 -1346.836475 -1549.334272 -1914.594870 -2480.900989 -1557.868391 -37.806125 -617.172776 -1399.982735 74.117041 1345.630035 327.966176 -819.028011 -1691.562470 73.541254 1466.549937 -129.930293 -1917.314202 -648.254423 1829.500174 -19.432238 -1856.676065 690.050444 2294.133242 770.447907 -630.939909 -1989.900653 34.781832 2283.281137 974.264650 -596.764477 -2135.599280 216.289104 2699.687209 1080.813651 -1167.777692 -716.682895 4443.649643 5863.769105 5781.496445 8266.039749 7376.326621 8174.988335 11336.197828 11948.465798 13338.049401 13650.084439 11639.262395 10355.898513 11977.699781 9110.389731 8687.646487 11690.121194 13779.290476 13953.011905 13953.011905 13953.011905 -954.467420 148.139138 -345.443975 13854.021674 15040.535125 21351.582596 11161.812298 14506.719299 15165.002918 13951.506972 18476.145726 15770.714713 15480.958682 14990.394713 21649.450873 14658.570425 13919.322231 22535.254578 10346.908975 14205.898223 15901.370696 15870.096915 14183.269864 13670.092518 12682.404529 13181.714180 10193.896481 15243.698169 12435.103183 15821.941401 11845.388330 17490.078055 13308.986036 12996.306719 14800.822979 14454.161252 14554.102108 12230.353837 16517.542094 9971.485476 13293.016831 16135.505458 12381.868121 13707.710169 14998.436971 16286.061926 13288.077291 14960.587663 12563.911372 10531.717656 13975.626287 12697.602080 13568.165366 13934.562466 13934.562466 13934.562466 141.774451 109.914448 2199.405460 3042.862086 11721.382290 13666.116367 14585.177666 14753.087308 11106.723119 14280.098825 13399.328806 13154.031776 11682.715337 13842.695626 13089.579534 12014.692306 10284.292060 13746.244874 11461.289441 15001.567304 14908.577764 16193.065226 13712.791905 13434.022337 12966.481623 12876.779926 13872.534473 12731.120106 14283.393866 13875.140298 11594.090599 13254.574555 13644.918129 13262.477030 12522.846629 11817.756280 11611.671528 11313.964441 10795.766837 13079.733741 13967.904905 13040.776782 12107.228438 13979.811556 11978.507175 15196.187718 12094.689921 13325.476967 12800.951768 15176.905719 10191.717487 14880.365789 14175.551840 14065.820592 14065.820592 14065.820592 -272.994711 -553.093708 7946.235113 5749.247673 7428.909098 3099.718563 13199.156167 6873.086339 14481.919859 11705.600583 9905.435318 15402.017063 10108.788827 9853.470070 13582.288502 10842.597876 13054.554109 9878.991641 9183.137553 11274.195295 13717.438783 8704.226801 14332.702688 12593.289769 12753.985291 8780.388288 11281.489717 11260.365520 14074.711016 15536.730872 15768.304236 15008.069482 15409.734397 13352.830769 14435.423533 13803.426736 12739.070815 11874.804938 12512.974650 11501.357281 11805.220993 12436.840998 13473.613208 15821.055348 15635.449496 13239.770803 17927.861358 14133.870352 13010.980033 15882.469174 12756.435012 13884.121052 14972.493783 14403.937632 14403.937632 14403.937632 3120.487502 2779.113378 253.300539 4985.829132 4076.560741 9748.835375 6813.187300 8995.606291 5174.292302 10941.845748 4961.960173 5714.894855 6348.389925 13678.666942 10270.471710 13412.206810 5971.304335 7548.807591 10456.720075 7750.388990 5163.119932 5628.9