<VTKFile type="PolyData">
<PolyData>
<Piece NumberOfPoints="8632" NumberOfVerts="8632" NumberOfLines="0" NumberOfStrips="0" NumberOfPolys="0">
<PointData>
<DataArray type="Float64" Name="Pressure" format="ascii">
 -0.284206 -0.284206 -0.284206 -0.291673 -0.376027 -0.597784 -0.859447 -1.175278 -1.554052 -2.007725 -2.552308 -3.207295 -3.995442 -4.942898 -6.079489 -7.439092 -9.060030 -10.985468 -13.263813 -15.949095 -19.101321 -22.786804 -27.078444 -32.055965 -37.806080 -44.422601 -52.006446 -60.665562 -70.514731 -81.675252 -94.274478 -108.445198 -124.324827 -142.054415 -161.777426 -183.638288 -207.780703 -234.345701 -263.469467 -295.280946 -329.899293 -367.431257 -407.968623 -451.585921 -498.338645 -548.262307 -601.372641 -657.667106 -717.127208 -779.719365 -845.387477 -914.019237 -985.342208 -1058.654482 -1132.218961 -1202.577245 -1264.674134 -1311.325768 -1328.624381 -1286.283408 -1155.144974 -978.764508 -841.141858 -729.903909 -586.245442 -422.998274 -324.408430 -301.735546 -293.337085 -239.112156 -142.223771 -85.985096 -103.549296 -131.205285 -99.605538 -23.182108 13.123849 2.413579 22.349673 111.329194 200.317740 218.880493 201.817182 235.633718 368.854333 553.119839 703.027637 824.216634 1001.152387 1329.540630 1847.527841 2482.291552 3109.660103 3662.539800 4147.918977 4605.913402 5077.054922 5597.978475 6180.643512 6807.086173 7442.290131 8044.303939 8572.149165 9005.742812 9361.983244 9674.572024 9962.731102 10156.921992 10194.179432 10194.179432 10194.179432 -0.284206 -0.284206 -0.284206 -0.291673 -0.376027 -0.597784 -0.859447 -1.175278 -1.554052 -2.007725 -2.552308 -3.207295 -3.995442 -4.942898 -6.079489 -7.439092 -9.060030 -10.985468 -13.263813 -15.949095 -19.101321 -22.786804 -27.078444 -32.055965 -37.806080 -44.422601 -52.006446 -60.665562 -70.514731 -81.675252 -94.274478 -108.445198 -124.324827 -142.054415 -161.777426 -183.638288 -207.780703 -234.345701 -263.469467 -295.280946 -329.899293 -367.431257 -407.968623 -451.585921 -498.338645 -548.262307 -601.372641 -657.667106 -717.127208 -779.719365 -845.387477 -914.019237 -985.342208 -1058.654482 -1132.218961 -1202.577245 -1264.674134 -1311.325768 -1328.624381 -1286.283408 -1155.144974 -978.764508 -841.141858 -729.903909 -586.245442 -422.998274 -324.408430 -301.735546 -293.337085 -239.112156 -142.223771 -85.985096 -103.549296 -131.205285 -99.605538 -23.182108 13.123849 2.413579 22.349673 111.329194 200.317740 218.880493 201.817182 235.633718 368.854333 553.119839 703.027637 824.216634 1001.152387 1329.540630 1847.527841 2482.291552 3109.660103 3662.539800 4147.918977 4605.913402 5077.054922 5597.978475 6180.643512 6807.086173 7442.290131 8044.303939 8572.149165 9005.742812 9361.983244 9674.572024 9962.731102 10156.921992 10194.179432 10194.179432 10194.179432 -0.284206 -0.284206 -0.284206 -0.291673 -0.376027 -0.597784 -0.859447 -1.175278 -1.554052 -2.007725 -2.552308 -3.207295 -3.995442 -4.942898 -6.079489 -7.439092 -9.060030 -10.985468 -13.263813 -15.949095 -19.101321 -22.786804 -27.078444 -32.055965 -37.806080 -44.422601 -52.006446 -60.665562 -70.514731 -81.675252 -94.274478 -108.445198 -124.324827 -142.054415 -161.777426 -183.638288 -207.780703 -234.345701 -263.469467 -295.280946 -329.899293 -367.431257 -407.968623 -451.585921 -498.338645 -548.262307 -601.372641 -657.667106 -717.127208 -779.719365 -845.387477 -914.019237 -985.342208 -1058.654482 -1132.218961 -1202.577245 -1264.674134 -1311.325768 -1328.624381 -1286.283408 -1155.144974 -978.764508 -841.141858 -729.903909 -586.245442 -422.998274 -324.408430 -301.735546 -293.337085 -239.112156 -142.223771 -85.985096 -103.549296 -131.205285 -99.605538 -23.182108 13.123849 2.413579 22.349673 111.329194 200.317740 218.880493 201.817182 235.633718 368.854333 553.119839 703.027637 824.216634 1001.152387 1329.540630 1847.527841 2482.291552 3109.660103 3662.539800 4147.918977 4605.913402 5077.054922 5597.978475 6180.643512 6807.086173 7442.290131 8044.303939 8572.149165 9005.742812 9361.983244 9674.572024 9962.731102 10156.921992 10194.179432 10194.179432 10194.179432 -0.282165 -0.282165 -0.282165 -0.289468 -0.373067 -0.593106 -0.854993 -1.172269 -1.552065 -2.006072 -2.550612 -3.205369 -3.993184 -4.940232 -6.076351 -7.435417 -9.055747 -10.980502 -13.258085 -15.942519 -19.093808 -22.778261 -27.068774 -32.045067 -37.793855 -44.408946 -51.991260 -60.648747 -70.496193 -81.654902 -94.252238 -108.420998 -124.298614 -142.026149 -161.747089 -183.605885 -207.746265 -234.309292 -263.431182 -295.240918 -329.857694 -367.388299 -407.924562 -451.541066 -498.293386 -548.217197 -601.328629 -657.626147 -717.093851 -779.704792 -845.419660 -914.167964 -985.777417 -1059.764676 -1134.629752 -1206.964947 -1271.829247 -1323.676444 -1349.645061 -1310.848149 -1190.607693 -974.826407 -825.042924 -741.468617 -610.092474 -403.074554 -300.042644 -298.177974 -311.296303 -258.413172 -127.049187 -60.700946 -100.401546 -153.699158 -117.910622 -9.023897 30.139175 -9.646907 -6.408488 108.753039 226.205333 232.777531 184.580818 198.000397 348.248075 567.157734 717.214452 811.054551 956.203023 1271.193994 1821.701925 2510.482434 3167.409239 3721.043257 4194.839492 4639.909527 5087.778117 5593.635801 6177.441063 6819.117105 7472.210299 8090.942268 8623.938895 9039.838218 9370.965994 9675.136785 9964.294737 10158.716807 10195.677727 10195.677727 10195.677727 -0.260258 -0.260258 -0.260258 -0.265976 -0.337251 -0.530521 -0.797468 -1.140448 -1.532092 -1.989636 -2.533713 -3.186154 -3.970633 -4.913616 -6.045017 -7.398706 -9.012961 -10.930895 -13.200858 -15.876824 -19.018750 -22.692904 -26.972147 -31.936174 -37.671684 -44.272480 -51.839493 -60.480695 -70.310915 -81.451518 -94.029952 -108.179122 -124.036596 -141.743605 -161.443832 -183.281964 -207.401998 -233.945301 -263.048428 -294.840726 -329.441779 -366.958781 -407.484000 -451.092538 -497.840761 -547.765940 -600.888023 -657.215227 -716.756773 -779.550085 -845.719348 -915.605152 -990.052695 -1070.929632 -1162.063470 -1258.028661 -1350.723417 -1458.463293 -1591.406094 -1782.783876 -1799.947761 -964.614766 -660.635272 -1005.253027 -985.750220 -101.792346 69.573747 -262.360304 -570.723901 -641.484749 115.743977 400.159585 -65.300083 -503.080456 -498.361472 311.456547 355.055820 -183.453511 -504.730449 52.275732 692.755656 445.540903 -39.539661 -356.607209 10.128431 869.143999 956.182770 676.577698 385.875626 457.289927 1422.903077 2912.540351 3916.737183 4423.993092 4773.692125 5118.974353 5267.667680 5529.084959 6140.761905 6987.946341 7859.331712 8710.360006 9361.239331 9525.427980 9487.819540 9718.550662 10049.116787 10203.067225 10221.542808 10221.542808 10221.542808 -0.229914 -0.229914 -0.229914 -0.234295 -0.284952 -0.420434 -0.672729 -1.086976 -1.505079 -1.969524 -2.514026 -3.164181 -3.945004 -4.883425 -6.009491 -7.357084 -8.964446 -10.874636 -13.135947 -15.802295 -18.933585 -22.596036 -26.862473 -31.812561 -37.532978 -44.117525 -51.667140 -60.289824 -70.100452 -81.220461 -93.777391 -107.904270 -123.738822 -141.422466 -161.099111 -182.913710 -207.010567 -233.531396 -262.613137 -294.385558 -328.968693 -366.470219 -406.982943 -450.582662 -497.326892 -547.255325 -600.393772 -656.765318 -716.417247 -779.484100 -846.336931 -917.944330 -996.768574 -1089.077377 -1211.557758 -1332.659230 -1446.386475 -1617.859407 -1889.800264 -2376.538882 -2110.047313 -345.164593 -282.498888 -1406.393788 -1376.801697 474.752541 647.167225 -220.481745 -1015.622903 -1367.813579 458.090012 1221.085649 22.537677 -1204.157792 -1349.472209 1000.554828 1109.658640 -525.193172 -1852.157232 -113.091064 2048.722103 913.589309 -350.634137 -1663.683174 -855.082018 1961.284773 1614.281392 531.933544 -424.619632 -1510.119799 388.579352 4022.199773 5281.391887 5473.221654 5534.270489 6868.076327 5783.340485 5664.750703 5997.221264 7757.657692 8530.148973 9775.904135 11445.346237 11057.730128 9756.454699 10442.422518 10751.953395 10335.813755 10288.946160 10288.946160 10288.946160 -0.225765 -0.225765 -0.225765 -0.229953 -0.277946 -0.403236 -0.198060 -0.198060 -0.198060 -0.200766 -0.231578 -0.299149 -0.157132 -0.157132 -0.157132 -0.158328 -0.171002 -0.192490 -0.122383 -0.122383 -0.122383 -0.122833 -0.127274 -0.134585 -0.094237 -0.094237 -0.094237 -0.094368 -0.095626 -0.097865 -0.071992 -0.071992 -0.071992 -0.072006 -0.072124 -0.072565 -0.054664 -0.054664 -0.054664 -0.054641 -0.054400 -0.054246 -0.041293 -0.041293 -0.041293 -0.041262 -0.040947 -0.040638 -0.031046 -0.031046 -0.031046 -0.031017 -0.030725 -0.030413 -0.023238 -0.023238 -0.023238 -0.023214 -0.022970 -0.022702 -0.017318 -0.017318 -0.017318 -0.017298 -0.017104 -0.016888 -0.012850 -0.012850 -0.012850 -0.012835 -0.012684 -0.012515 -0.009494 -0.009494 -0.009494 -0.009483 -0.009367 -0.009237 -0.006985 -0.006985 -0.006985 -0.006976 -0.006888 -0.006789 -0.005117 -0.005117 -0.005117 -0.005110 -0.005044 -0.004969 -0.003732 -0.003732 -0.003732 -0.003727 -0.003678 -0.003621 -0.002711 -0.002711 -0.002711 -0.002707 -0.002670 -0.002628 -0.001961 -0.001961 -0.001961 -0.001958 -0.001930 -0.001899 -0.001412 -0.001412 -0.001412 -0.001410 -0.001390 -0.001367 -0.001013 -0.001013 -0.001013 -0.001011 -0.000996 -0.000979 -0.000723 -0.000723 -0.000723 -0.000722 -0.000711 -0.000699 -0.000514 -0.000514 -0.000514 -0.000513 -0.000505 -0.000496 -0.000364 -0.000364 -0.000364 -0.000363 -0.000358 -0.000351 -0.000257 -0.000257 -0.000257 -0.000256 -0.000252 -0.000247 -0.000180 -0.000180 -0.000180 -0.000180 -0.000177 -0.000173 -0.000126 -0.000126 -0.000126 -0.000126 -0.000124 -0.000121 -0.000088 -0.000088 -0.000088 -0.000088 -0.000086 -0.000084 -0.000061 -0.000061 -0.000061 -0.000061 -0.000060 -0.000058 -0.000042 -0.000042 -0.000042 -0.000042 -0.000041 -0.000040 -0.000029 -0.000029 -0.000029 -0.000029 -0.000028 -0.000028 -0.000020 -0.000020 -0.000020 -0.000020 -0.000019 -0.000019 -0.000013 -0.000013 -0.000013 -0.000013 -0.000013 -0.000013 -0.000009 -0.000009 -0.000009 -0.000009 -0.000009 -0.000009 -0.000006 -0.000006 -0.000006 -0.000006 -0.000006 -0.000006 -0.000004 -0.000004 -0.000004 -0.000004 -0.000004 -0.000004 -0.000003 -0.000003 -0.000003 -0.000003 -0.000003 -0.000003 -0.000002 -0.000002 -0.000002 -0.000002 -0.000002 -0.000002 -0.000001 -0.000001 -0.000001 -0.000001 -0.000001 -0.000001 -0.000001 -0.000001 -0.000001 -0.000001 -0.000001 -0.000001 -0.000001 -0.000001 -0.000001 -0.000001 -0.000001 -0.000001 -0.000000 -0.000000 -0.000000 -0.000000 -0.000000 -0.000000 -0.000000 -0.000000 -0.000000 -0.000000 -0.000000 -0.000000 -0.000000 -0.000000 -0.000000 -0.000000 -0.000000 -0.000000 -0.000000 -0.000000 -0.000000 -0.000000 -0.000000 -0.000000 -0.000000 -0.000000 -0.000000 -0.000000 -0.000000 -0.000000 -0.000000 -0.000000 -0.000000 -0.000000 -0.000000 -0.000000 -0.000000 -0.000000 -0.000000 -0.000000 -0.000000 -0.000000 -0.000000 -0.000000 -0.000000 -0.000000 -0.000000 -0.000000 -0.000000 -0.000000 -0.000000 -0.000000 -0.000000 -0.000000 -0.000000 -0.000000 -0.000000 -0.000000 -0.000000 -0.000000 -0.000000 -0.000000 -0.000000 -0.000000 -0.000000 -0.000000 -0.000000 -0.000000 -0.000000 -0.000000 -0.000000 -0.000000 -0.000000 -0.000000 -0.000000 -0.000000 -0.000000 -0.000000 -0.000000 -0.000000 -0.000000 -0.000000 -0.000000 -0.000000 -0.000000 -0.000000 -0.000000 -0.000000 -0.000000 -0.000000 -0.000000 -0.000000 -0.000000 -0.000000 -0.000000 -0.000000 -0.000000 -0.000000 -0.000000 -0.000000 -0.000000 -0.000000 -0.000000 -0.000000 -0.000000 -0.000000 -0.000000 -0.000000 -0.000000 -0.000000 -0.000000 -0.000000 -0.000000 -0.000000 -0.000000 -0.000000 -0.000000 -0.000000 -0.000000 -0.000000 -0.000000 -0.000000 -0.000000 -0.000000 -0.000000 -0.000000 -0.000000 -0.000000 -0.000000 -0.000000 -0.000000 -0.000000 -0.000000 -0.000000 -0.000000 -0.000000 -0.000000 -0.000000 -0.000000 -0.000000 -0.000000 -0.000000 -0.000000 -0.000000 -0.000000 -0.000000 -0.000000 -0.000000 -0.000000 -0.000000 -0.000000 -0.000000 -0.000000 -0.000000 -0.000000 -0.000000 -0.000000 -0.000000 -0.000000 -0.000000 -0.000000 -0.000000 -0.000000 -0.000000 -0.000000 -0.000000 -0.000000 -0.000000 -0.000000 -0.000000 -0.000000 -0.000000 -0.000000 -0.000000 -0.000000 -0.000000 -0.000000 -0.000000 -0.000000 -0.000000 -0.000000 -0.000000 -0.000000 -0.000000 -0.000000 -0.000000 -0.000000 -0.000000 -0.000000 -0.000000 -0.000000 -0.000000 -0.000000 -0.000000 -0.000000 -0.000000 -0.000000 -0.000000 -0.000000 -0.000000 -0.000000 -0.000000 -0.000000 -0.000000 -0.000000 -0.000000 -0.000000 -0.000000 -0.000000 -0.000000 -0.000000 -0.000000 -0.000000 -0.000000 -0.000000 -0.000000 -0.000000 -0.000000 -0.000000 -0.000000 -0.000000 -0.000000 -0.000000 -0.000000 -0.000000 -0.000000 -0.000000 -0.000000 -0.000000 -0.000000 -0.000000 -0.000000 -0.000000 -0.000000 -0.000000 -0.000000 -0.000000 -0.000000 -0.000000 -0.000000 -0.000000 -0.000000 -0.000000 -0.000000 -0.000000 -0.000000 -0.000000 -0.000000 -0.000000 -0.000000 -0.000000 -0.000000 -0.000000 -0.000000 -0.000000 -0.000000 -0.000000 -0.000000 -0.000000 -0.000000 -0.000000 -0.000000 -0.000000 -0.000000 -0.000000 -0.000000 -0.000000 -0.000000 -0.000000 -0.000000 -0.000000 -0.000000 -0.000000 -0.000000 -0.000000 -0.000000 -0.000000 -0.000000 -0.000000 -0.000000 -0.000000 -0.000000 -0.000000 -0.000000 -0.000000 -0.000000 -0.000000 -0.000000 -0.000000 -0.000000 -0.000000 -0.000000 -0.000000 -0.000000 -0.000000 -0.000000 -0.000000 -0.000000 -0.000000 -0.000000 -0.000000 -0.000000 -0.000000 -0.000000 -0.000000 -0.000000 -0.000000 -0.000000 -0.000000 -0.000000 -0.000000 -0.000000 -0.000000 -0.000000 -0.000000 -0.000000 -0.000000 -0.000000 -0.000000 -0.000000 -0.000000 -0.000000 -0.000000 -0.000000 -0.000000 -0.000000 -0.000000 -0.000000 -0.000000 -0.000000 -0.000000 -0.000000 -0.000000 -0.000000 -0.000000 -0.000000 -0.000000 -0.000000 -0.000000 -0.000000 -0.000000 -0.000000 -0.000000 -0.000000 -0.000000 -0.000000 -0.000000 -0.000000 -0.000000 -0.000000 -0.000000 -0.000000 -0.000000 -0.000000 -0.000000 -0.000000 -0.000000 -0.000000 -0.000000 -0.000000 -0.000000 -0.000000 -0.000000 -0.000000 -0.000000 -0.000000 -0.000000 -0.000000 -0.000000 -0.000000 -0.000000 -0.000000 -0.000000 -0.000000 -0.000000 -0.000000 -0.000000 -0.000000 -0.000000 -0.000000 -0.000000 -0.000000 -0.000000 -0.000000 -0.000000 -0.000000 -0.000000 -0.000000 -0.000000 -0.000000 -0.000000 -0.000000 -0.000000 -0.000000 -0.000000 -0.000000 -0.000000 -0.000000 -0.000000 -0.000000 -0.000000 -0.000000 -0.000000 -0.000000 -0.000000 -0.000000 -0.000000 -0.000000 -0.000000 -0.000000 -0.000000 -0.000000 -0.000000 -0.000000 -0.000000 -0.000000 -0.000000 -0.000000 -0.000000 -0.000000 -0.000000 -0.000000 -0.000000 -0.000000 -0.000000 -0.000000 -0.000000 -0.000000 -0.000000 -0.000000 -0.000000 -0.000000 -0.000000 -0.000000 -0.000000 -0.000000 -0.000000 -0.000000 -0.000000 -0.000000 -0.000000 -0.000000 -0.000000 -0.000000 -0.000000 -0.000000 -0.000000 -0.000000 -0.000000 -0.000000 -0.000000 -0.000000 -0.000000 -0.000000 -0.000000 -0.000000 -0.000000 -0.000000 -0.000000 -0.000000 -0.000000 -0.000000 -0.000000 -0.000000 -0.000000 -0.000000 -0.000000 -0.000000 -0.000000 -0.000000 -0.000000 -0.000000 -0.000000 -0.000000 -0.000000 -0.000000 -0.000000 -0.000000 -0.000000 -0.000000 -0.000000 -0.000000 -0.000000 -0.000000 -0.000000 -0.000000 -0.000000 -0.000000 -0.000000 -0.000000 -0.000000 -0.000000 -0.000000 -0.000000 -0.000000 -0.000000 -0.000000 -0.000000 -0.000000 -0.000000 -0.000000 -0.000000 -0.000000 -0.000000 -0.000000 -0.000000 -0.000000 -0.000000 -0.000000 -0.000000 -0.000000 -0.000000 -0.000000 -0.000000 -0.000000 -0.000000 -0.000000 -0.000000 -0.000000 -0.000000 -0.000000 -0.000000 -0.000000 -0.000000 -0.000000 -0.000000 -0.000000 -0.000000 -0.000000 -0.000000 -0.000000 -0.000000 -0.000000 -0.000000 -0.000000 -0.000000 -0.000000 -0.000000 -0.000000 -0.000000 -0.000000 -0.000000 -0.000000 -0.000000 -0.000000 -0.000000 -0.000000 -0.000000 -0.000000 -0.000000 -0.000000 -0.000000 -0.000000 -0.000000 -0.000000 -0.000000 -0.000000 -0.000000 -0.000000 -0.000000 -0.000000 -0.000000 -0.000000 -0.000000 -0.000000 -0.000000 -0.000000 -0.000000 -0.000000 -0.000000 -0.000000 -0.000000 -0.000000 -0.000000 -0.000000 -0.000000 -0.000000 -0.000000 -0.000000 -0.000000 -0.000000 -0.000000 -0.000000 -0.000000 -0.000000 -0.000000 -0.000000 -0.000000 -0.000000 -0.000000 -0.000000 -0.000000 -0.000000 -0.000000 -0.000000 -0.000000 -0.000000 -0.000000 -0.000000 -0.000000 -0.000000 -0.000000 -0.000000 -0.000000 -0.000000 -0.000000 -0.000000 -0.000000 -0.000000 -0.000000 -0.000000 -0.000000 -0.000000 -0.000000 -0.000000 -0.000000 -0.000000 -0.000000 -0.000000 -0.000000 -0.000000 -0.000000 -0.000000 -0.000000 -0.000000 -0.000000 -0.000000 -0.000000 -0.000000 -0.000000 -0.000000 -0.000000 -0.000000 -0.000000 -0.000000 -0.000000 -0.000000 -0.000000 -0.000000 -0.000000 -0.000000 -0.000000 -0.000000 -0.000000 -0.000000 -0.000000 -0.000000 -0.000000 -0.000000 -0.000000 -0.000000 -0.000000 -0.000000 -0.000000 -0.000000 -0.000000 -0.000000 -0.000000 -0.000000 -0.000000 -0.000000 -0.000000 -0.000000 -0.000000 -0.000000 -0.000000 -0.000000 -0.000000 -0.000000 -0.000000 -0.000000 -0.000000 -0.000000 -0.000000 -0.000000 -0.000000 -0.000000 -0.000000 -0.000000 -0.000000 -0.000000 -0.000000 -0.000000 -0.000000 -0.000000 -0.000000 -0.000000 -0.000000 -0.000000 -0.000000 -0.000000 -0.000000 -0.000000 -0.000000 -0.000000 -0.000000 -0.000000 -0.000000 -0.000000 -0.000000 -0.000000 -0.000000 -0.000000 -0.000000 -0.000000 -0.000000 -0.000000 -0.000000 -0.000000 -0.000000 -0.000000 -0.000000 -0.000000 -0.000000 -0.000000 -0.000000 -0.000000 -0.000000 -0.000000 -0.000000 -0.000000 -0.000000 -0.000000 -0.000000 -0.000000 -0.000000 -0.000000 -0.000000 -0.000000 -0.000000 -0.000000 -0.000000 -0.000000 -0.000000 -0.000000 -0.000000 -0.000000 -0.000000 -0.000000 -0.000000 -0.000000 -0.000000 -0.000000 -0.000000 -0.000000 -0.000000 -0.000000 -0.000000 -0.000000 -0.000000 -0.000000 -0.000000 -0.000000 -0.000000 -0.000000 -0.000000 -0.000000 -0.000000 -0.000000 -0.000000 -0.000000 -0.000000 -0.000000 -0.000000 -0.000000 -0.000000 -0.000000 -0.000000 -0.000000 -0.000000 -0.000000 -0.000000 -0.000000 -0.000000 -0.000000 -0.000000 -0.000000 -0.000000 -0.000000 -0.000000 -0.000000 -0.000000 -0.000000 -0.000000 -0.000000 -0.000000 -0.000000 -0.000000 -0.000000 -0.000000 -0.000000 -0.000000 -0.000000 -0.000000 -0.000000 -0.000000 -0.000000 -0.000000 -0.000000 -0.000000 -0.000000 -0.000000 -0.000000 -0.000000 -0.000000 -0.000000 -0.000000 -0.000000 -0.000000 -0.000000 -0.000000 -0.000000 -0.000000 -0.000000 -0.000000 -0.000000 -0.000000 -0.000000 -0.000000 -0.000000 -0.000000 -0.000000 -0.000000 -0.000000 -0.000000 -0.000000 -0.000000 -0.000000 -0.000000 -0.000000 -0.000000 -0.000000 -0.000000 -0.000000 -0.000000 -0.000000 -0.000000 -0.000000 -0.000000 -0.000000 -0.000000 -0.000000 -0.000000 -0.000000 -0.000000 -0.000000 -0.000000 -0.000000 -0.000000 -0.000000 -0.000000 -0.000000 -0.000000 -0.000000 -0.000000 -0.000000 -0.000000 -0.000000 -0.000000 -0.000000 -0.000000 -0.000000 -0.000000 -0.000000 -0.000000 -0.000000 -0.000000 -0.000000 -0.000000 -0.000000 -0.000000 -0.000000 -0.000000 -0.000000 -0.000000 -0.000000 -0.000000 -0.000000 -0.000000 -0.000000 -0.000000 -0.000000 -0.000000 -0.000000 -0.000000 -0.000000 -0.000000 -0.000000 -0.000000 -0.000000 -0.000000 -0.000000 -0.000000 -0.000000 -0.000000 -0.000000 -0.000000 -0.000000 -0.000000 -0.000000 -0.000000 -0.000000 -0.000000 -0.000000 -0.000000 -0.000000 -0.000000 -0.000000 -0.000000 -0.000000 -0.000000 -0.000000 -0.000000 -0.000000 -0.000000 -0.000000 -0.000000 -0.000000 -0.000000 -0.000000 -0.000000 -0.000000 -0.000000 -0.000000 -0.000000 -0.000000 -0.000000 -0.000000 -0.000000 -0.000000 -0.000001 -0.000001 -0.000001 -0.000001 -0.000001 -0.000001 -0.000001 -0.000001 -0.000001 -0.000001 -0.000001 -0.000001 -0.000001 -0.000001 -0.000001 -0.000001 -0.000001 -0.000002 -0.000002 -0.000002 -0.000002 -0.000002 -0.000002 -0.000003 -0.000002 -0.000002 -0.000002 -0.000002 -0.000003 -0.000005 -0.000003 -0.000003 -0.000003 -0.000003 -0.000004 -0.000008 -0.000014 -0.000022 -0.000031 -0.000042 -0.000055 -0.000070 -0.000089 -0.000109 -0.000131 -0.000151 -0.000165 -0.000165 -0.000140 -0.000069 0.000075 0.000337 0.000781 0.001498 0.002621 0.004336 0.006903 0.010682 0.016165 0.024024 0.035162 0.050786 0.072501 0.102420 0.143309 0.198762 0.273415 0.373215 0.505734 0.680555 0.909728 1.208307 1.594987 2.092834 2.730138 3.541387 4.568365 5.861405 7.480776 9.498239 11.998802 15.083050 18.873883 23.567660 29.955122 44.769954 136.852424 858.989908 6753.464291 3090.808455 -7738.047514 15604.294254 26258.031419 -21148.151558 -20631.802431 -6503.683940 -15430.212244 -7086.280825 11883.723732 9898.732248 1305.797281 1171.805990 -7684.088855 3544.678214 29764.830398 19164.176154 9718.077175 20956.526141 22331.167628 4205.093080 7480.545733 22176.962825 8096.155584 10799.160963 19204.157673 16686.858185 20702.168726 26809.971151 25495.689381 27737.288038 30710.386540 28185.001231 29058.433995 26563.698896 26016.821529 27527.841121 25968.929910 25623.399118 28001.388369 26299.923758 27214.216493 28282.422450 26944.272562 27301.194334 29809.471367 28162.634197 20978.529604 20048.906645 20221.163305 20221.163305 20221.163305 -0.000004 -0.000004 -0.000004 -0.000004 -0.000005 -0.000010 -0.000015 -0.000023 -0.000031 -0.000042 -0.000055 -0.000071 -0.000089 -0.000109 -0.000130 -0.000150 -0.000163 -0.000161 -0.000133 -0.000059 0.000092 0.000363 0.000820 0.001557 0.002707 0.004459 0.007079 0.010929 0.016511 0.024501 0.035815 0.051673 0.073697 0.104020 0.145434 0.201565 0.277088 0.377997 0.511919 0.688506 0.919885 1.221206 1.611269 2.113267 2.755634 3.573018 4.607388 5.909282 7.539197 9.569145 12.084409 15.185787 18.995122 23.690490 29.824498 41.281907 90.191235 403.417572 1446.776732 2449.413011 1875.944542 3094.320692 6029.443881 -1582.510441 -5863.165948 -4371.501625 -1372.478515 895.304532 5624.631039 6285.745095 3539.048208 5928.003550 5709.572513 8339.295112 12920.278796 11327.590673 9582.790504 11467.693110 14108.214229 10984.375475 11328.034042 14372.328320 12908.215307 13899.597656 16022.253405 16231.215088 18164.090461 21087.572398 22235.587234 22688.091531 23508.383066 22614.550250 23689.030569 23206.348851 23754.257737 24939.367089 23096.402942 23384.728302 25536.315650 24332.720731 25543.564529 24318.555259 23184.485327 25426.695356 25960.519212 22105.717135 18570.341618 18782.346283 18888.635781 18888.635781 18888.635781 -0.000004 -0.000004 -0.000004 -0.000004 -0.000006 -0.000010 -0.000016 -0.000023 -0.000032 -0.000042 -0.000055 -0.000071 -0.000089 -0.000109 -0.000130 -0.000149 -0.000160 -0.000157 -0.000126 -0.000046 0.000112 0.000394 0.000866 0.001625 0.002806 0.004603 0.007283 0.011217 0.016911 0.025054 0.036571 0.052700 0.075080 0.105870 0.147890 0.204803 0.281329 0.383515 0.519055 0.697675 0.931595 1.236070 1.630026 2.136798 2.784986 3.609422 4.652288 5.964354 7.606379 9.650667 12.182819 15.303951 19.135326 23.840242 29.770872 38.471194 58.606370 129.669070 338.308630 689.498000 1019.302382 1448.769752 2010.473441 1951.201294 1440.894348 1559.732317 2356.964281 3381.361295 4662.870299 5773.887275 6357.690479 7166.411680 8051.552722 8684.907031 9331.324312 9794.442655 10217.039896 10924.606880 11697.993264 11980.995281 12258.958971 12795.241050 13067.798650 13287.483447 13613.627481 13918.505892 14397.959793 15092.204107 15880.349617 16439.594006 17111.197887 17618.520789 18323.571763 18885.572094 19533.034226 20108.838613 20303.494169 20801.050203 21407.606140 21593.409515 21940.451753 21613.893797 21139.816984 21100.190320 20520.707475 19348.153360 18615.297696 18270.424736 18186.328094 18186.328094 18186.328094 -0.000004 -0.000004 -0.000004 -0.000004 -0.000006 -0.000011 -0.000016 -0.000023 -0.000032 -0.000043 -0.000056 -0.000071 -0.000089 -0.000109 -0.000130 -0.000149 -0.000160 -0.000156 -0.000124 -0.000044 0.000115 0.000399 0.000874 0.001637 0.002824 0.004629 0.007320 0.011268 0.016983 0.025153 0.036707 0.052885 0.075329 0.106203 0.148333 0.205387 0.282093 0.384509 0.520340 0.699325 0.933702 1.238745 1.633400 2.141031 2.790264 3.615968 4.660360 5.974253 7.618454 9.665316 12.200503 15.325193 19.160631 23.868220 29.772088 38.088782 54.553988 101.200801 226.739861 468.950489 805.307309 1235.274251 1751.160764 2106.381596 2191.481770 2341.671377 2824.967646 3592.161551 4562.642728 5559.794600 6400.371005 7273.169683 8138.811640 8793.080791 9303.392429 9778.366439 10314.805489 10959.284137 11587.361166 11984.753572 12293.028892 12646.496250 12907.111304 13094.699197 13290.864977 13524.995212 13896.398435 14435.102861 15054.064601 15691.964704 16329.618468 16949.320047 17591.316642 18222.377457 18847.247143 19396.507147 19850.529501 20349.360326 20842.350477 21172.119064 21333.937589 21259.969730 20960.772249 20495.237216 19893.295652 19247.534259 18642.368375 18189.418083 18092.975589 18092.975589 18092.975589 -0.000004 -0.000004 -0.000004 -0.000004 -0.000006 -0.000011 -0.000016 -0.000023 -0.000032 -0.000043 -0.000056 -0.000071 -0.000089 -0.000109 -0.000130 -0.000149 -0.000160 -0.000156 -0.000124 -0.000044 0.000115 0.000399 0.000874 0.001637 0.002824 0.004629 0.007320 0.011268 0.016983 0.025153 0.036707 0.052885 0.075329 0.106203 0.148333 0.205387 0.282093 0.384509 0.520340 0.699325 0.933702 1.238745 1.633400 2.141031 2.790264 3.615968 4.660360 5.974253 7.618454 9.665316 12.200503 15.325193 19.160631 23.868220 29.772088 38.088782 54.553988 101.200801 226.739861 468.950489 805.307309 1235.274251 1751.160764 2106.381596 2191.481770 2341.671377 2824.967646 3592.161551 4562.642728 5559.794600 6400.371005 7273.169683 8138.811640 8793.080791 9303.392429 9778.366439 10314.805489 10959.284137 11587.361166 11984.753572 12293.028892 12646.496250 12907.111304 13094.699197 13290.864977 13524.995212 13896.398435 14435.102861 15054.064601 15691.964704 16329.618468 16949.320047 17591.316642 18222.377457 18847.247143 19396.507147 19850.529501 20349.360326 20842.350477 21172.119064 21333.937589 21259.969730 20960.772249 20495.237216 19893.295652 19247.534259 18642.368375 18189.418083 18092.975589 18092.975589 18092.975589 -0.000004 -0.000004 -0.000004 -0.000004 -0.000006 -0.000011 -0.000016 -0.000023 -0.000032 -0.000043 -0.000056 -0.000071 -0.000089 -0.000109 -0.000130 -0.000149 -0.000160 -0.000156 -0.000124 -0.000044 0.000115 0.000399 0.000874 0.001637 0.002824 0.004629 0.007320 0.011268 0.016983 0.025153 0.036707 0.052885 0.075329 0.106203 0.148333 0.205387 0.282093 0.384509 0.520340 0.699325 0.933702 1.238745 1.633400 2.141031 2.790264 3.615968 4.660360 5.974253 7.618454 9.665316 12.200503 15.325193 19.160631 23.868220 29.772088 38.088782 54.553988 101.200801 226.739861 468.950489 805.307309 1235.274251 1751.160764 2106.381596 2191.481770 2341.671377 2824.967646 3592.161551 4562.642728 5559.794600 6400.371005 7273.169683 8138.811640 8793.080791 9303.392429 9778.366439 10314.805489 10959.284137 11587.361166 11984.753572 12293.028892 12646.496250 12907.111304 13094.699197 13290.864977 13524.995212 13896.398435 14435.102861 15054.064601 15691.964704 16329.618468 16949.320047 17591.316642 18222.377457 18847.247143 19396.507147 19850.529501 20349.360326 20842.350477 21172.119064 21333.937589 21259.969730 20960.772249 20495.237216 19893.295652 19247.534259 18642.368375 18189.418083 18092.975589 18092.975589 18092.975589 -1361.298222 -1482.623545 -1677.347536 -1995.179867 -2466.467021 -1656.266149 48.241914 -461.176743 -1603.175559 -1048.467413 790.567983 512.406422 -364.524969 -1237.250401 -1215.615557 884.564896 1081.215689 -227.443504 -1539.462809 -1073.758975 1446.163931 879.580597 -961.976964 -2123.929440 603.833165 2243.546433 664.144270 -695.720148 -2121.561161 -303.073704 2446.981621 1456.835120 323.526078 -859.985146 -2016.789851 1177.994073 4880.566622 5907.472730 5446.487711 6111.807626 7250.318407 5931.931793 5797.458362 6456.947257 8270.708877 8776.014862 10313.431220 12158.719500 11148.065985 9897.200314 10995.138210 10909.954081 10345.095193 10307.685943 10307.685943 10307.685943 -2290.061633 -764.942018 -105.479952 13170.316178 11830.852355 12789.012989 12152.033828 11736.983323 12188.822115 13146.115598 13363.831844 12005.573299 13304.369982 12426.738794 11686.882575 11684.620467 12283.458612 10585.905867 13447.286261 11848.912480 12358.189752 12351.065061 11356.109884 11282.772858 12128.140426 11245.679451 12571.336811 9597.547858 11062.751168 13190.286905 13833.705264 13151.423736 12566.351570 12924.326141 15429.863919 12557.033581 12974.448831 11013.243828 10644.464257 11810.514604 12803.106552 13513.181837 10233.763731 13607.659244 12016.703374 13066.731352 10156.664519 13922.838090 11276.666554 12894.563799 12762.652010 11982.786994 10628.388256 10477.408042 10477.408042 10477.408042 124.334431 90.068384 8656.558472 4119.052152 12231.807674 11081.477415 12013.284812 13458.415465 11720.433701 11620.532742 11909.662417 11180.496063 9253.962127 10281.423141 9882.500857 11551.434738 5528.499425 13044.845401 11041.717518 12926.211236 10132.402164 11372.702038 10714.882035 9897.240304 9048.633040 10783.658607 11017.577567 10406.315481 10774.253409 9368.887724 8218.241274 8378.567674 13801.537687 9126.871576 13793.311120 8281.316233 9010.963099 7572.188328 9444.331235 12345.727512 11269.245727 11069.030120 8262.027026 12605.929311 9894.847234 12279.294661 10599.739837 13240.527942 8792.843061 13451.056997 12617.252462 10662.096819 10740.819560 10755.134614 10755.134614 10755.134614 -229.604709 -1205.772521 11298.356312 7882.913395 13510.591916 7736.743820 12196.832931 12550.006066 13405.746347 12810.025886 12397.502696 11207.067339 11633.708544 7876.701024 11474.471191 13072.780865 12942.663586 11479.121329 12384.314480 11771.495698 11050.544873 9555.293222 8174.766291 12276.501602 10887.551642 10759.252935 11296.014410 8905.423000 12159.705570 12239.641511 12164.404852 11253.578020 9339.992562 9809.830337 12669.048964 9073.866446 10436.620201 8222.093733 11029.987279 9220.646552 6802.196939 10650.728715 9965.039003 11869.765185 9156.479727 13535.805080 13903.514772 9989.944247 10641.486814 12891.278170 13822.0871