<VTKFile type="PolyData">
<PolyData>
<Piece NumberOfPoints="8632" NumberOfVerts="8632" NumberOfLines="0" NumberOfStrips="0" NumberOfPolys="0">
<PointData>
<DataArray type="Float64" Name="Pressure" format="ascii">
 -0.000000 -0.000000 -0.000000 -0.000000 -0.000000 -0.000000 -0.000000 0.000000 0.000000 0.000000 0.000000 0.000000 0.000000 0.000000 0.000000 0.000000 0.000000 0.000000 0.000000 0.000000 0.000000 0.000000 -0.000000 -0.000000 -0.000000 -0.000000 -0.000000 -0.000001 -0.000004 -0.000013 -0.000040 -0.000124 -0.000369 -0.001054 -0.002903 -0.007691 -0.019615 -0.048149 -0.113763 -0.258740 -0.566518 -1.194329 -2.425042 -4.744779 -8.952954 -16.312124 -28.748529 -49.121171 -81.576206 -131.948689 -207.950958 -318.297409 -468.772936 -651.920188 -827.543283 -906.834906 -790.394818 -499.780050 -205.867934 47.989178 313.601675 491.640036 591.856846 698.090537 823.527508 958.269524 1101.772449 1251.910708 1405.657370 1562.108677 1721.490201 1884.062398 2050.155749 2220.144744 2394.334983 2572.953803 2756.234441 2944.480489 3138.013443 3337.014558 3541.355614 3750.542534 3963.858066 4180.722509 4401.077713 4625.459784 4854.885027 5090.573710 5333.507947 5583.888928 5840.613278 6101.135243 6362.282978 6622.073717 6881.245532 7142.160020 7406.051213 7670.533065 7928.320578 8165.926802 8359.939889 8463.370084 8384.663738 8020.712028 7343.811959 6311.369707 4876.232315 3687.805646 3443.380891 3443.380891 3443.380891 -0.000000 -0.000000 -0.000000 -0.000000 -0.000000 -0.000000 -0.000000 0.000000 0.000000 0.000000 0.000000 0.000000 0.000000 0.000000 0.000000 0.000000 0.000000 0.000000 0.000000 0.000000 0.000000 0.000000 -0.000000 -0.000000 -0.000000 -0.000000 -0.000000 -0.000001 -0.000004 -0.000013 -0.000040 -0.000124 -0.000369 -0.001054 -0.002903 -0.007691 -0.019615 -0.048149 -0.113763 -0.258740 -0.566518 -1.194329 -2.425042 -4.744779 -8.952954 -16.312124 -28.748529 -49.121171 -81.576206 -131.948689 -207.950958 -318.297409 -468.772936 -651.920188 -827.543283 -906.834906 -790.394818 -499.780050 -205.867934 47.989178 313.601675 491.640036 591.856846 698.090537 823.527508 958.269524 1101.772449 1251.910708 1405.657370 1562.108677 1721.490201 1884.062398 2050.155749 2220.144744 2394.334983 2572.953803 2756.234441 2944.480489 3138.013443 3337.014558 3541.355614 3750.542534 3963.858066 4180.722509 4401.077713 4625.459784 4854.885027 5090.573710 5333.507947 5583.888928 5840.613278 6101.135243 6362.282978 6622.073717 6881.245532 7142.160020 7406.051213 7670.533065 7928.320578 8165.926802 8359.939889 8463.370084 8384.663738 8020.712028 7343.811959 6311.369707 4876.232315 3687.805646 3443.380891 3443.380891 3443.380891 -0.000000 -0.000000 -0.000000 -0.000000 -0.000000 -0.000000 -0.000000 0.000000 0.000000 0.000000 0.000000 0.000000 0.000000 0.000000 0.000000 0.000000 0.000000 0.000000 0.000000 0.000000 0.000000 0.000000 -0.000000 -0.000000 -0.000000 -0.000000 -0.000000 -0.000001 -0.000004 -0.000013 -0.000040 -0.000124 -0.000369 -0.001054 -0.002903 -0.007691 -0.019615 -0.048149 -0.113763 -0.258740 -0.566518 -1.194329 -2.425042 -4.744779 -8.952954 -16.312124 -28.748529 -49.121171 -81.576206 -131.948689 -207.950958 -318.297409 -468.772936 -651.920188 -827.543283 -906.834906 -790.394818 -499.780050 -205.867934 47.989178 313.601675 491.640036 591.856846 698.090537 823.527508 958.269524 1101.772449 1251.910708 1405.657370 1562.108677 1721.490201 1884.062398 2050.155749 2220.144744 2394.334983 2572.953803 2756.234441 2944.480489 3138.013443 3337.014558 3541.355614 3750.542534 3963.858066 4180.722509 4401.077713 4625.459784 4854.885027 5090.573710 5333.507947 5583.888928 5840.613278 6101.135243 6362.282978 6622.073717 6881.245532 7142.160020 7406.051213 7670.533065 7928.320578 8165.926802 8359.939889 8463.370084 8384.663738 8020.712028 7343.811959 6311.369707 4876.232315 3687.805646 3443.380891 3443.380891 3443.380891 -0.000000 -0.000000 -0.000000 -0.000000 -0.000000 -0.000000 -0.000000 0.000000 0.000000 0.000000 0.000000 0.000000 0.000000 0.000000 0.000000 0.000000 0.000000 0.000000 0.000000 0.000000 0.000000 0.000000 -0.000000 -0.000000 -0.000000 -0.000000 -0.000000 -0.000001 -0.000004 -0.000012 -0.000040 -0.000122 -0.000364 -0.001041 -0.002869 -0.007609 -0.019420 -0.047708 -0.112806 -0.256756 -0.562591 -1.186920 -2.411760 -4.722279 -8.917326 -16.260729 -28.685829 -49.075452 -81.645636 -132.423322 -209.619421 -323.162099 -481.530259 -682.381369 -889.504320 -1004.466575 -880.796374 -522.617129 -207.269619 30.967100 353.343645 558.558976 663.235373 790.942985 941.001802 1097.103091 1264.641460 1438.009486 1611.698316 1784.336044 1956.417865 2128.428946 2301.268089 2475.981929 2653.542578 2834.908635 3021.194638 3213.684039 3413.610038 3621.744142 3837.949547 4060.895080 4288.156987 4517.098877 4746.255010 4976.011098 5208.419991 5446.250339 5691.738506 5945.782796 6207.720798 6475.318502 6745.520726 7015.392047 7284.677572 7554.610436 7825.278679 8093.867040 8353.290181 8591.662822 8784.847809 8893.388234 8826.687250 8445.060368 7770.680644 6741.373988 5207.355087 3876.837605 3609.114072 3609.114072 3609.114072 -0.000000 -0.000000 -0.000000 -0.000000 -0.000000 -0.000000 0.000000 0.000000 0.000000 0.000000 0.000000 0.000000 0.000000 0.000000 0.000000 0.000000 0.000000 0.000000 0.000000 0.000000 0.000000 0.000000 -0.000000 -0.000000 -0.000000 -0.000000 -0.000000 -0.000001 -0.000003 -0.000010 -0.000034 -0.000106 -0.000317 -0.000916 -0.002546 -0.006810 -0.017524 -0.043399 -0.103439 -0.237285 -0.523946 -1.113823 -2.280388 -4.499113 -8.562766 -15.746692 -28.051873 -48.590177 -82.251848 -136.920924 -225.655310 -370.285441 -606.325424 -985.249229 -1566.305951 -2170.341190 -2137.477331 -547.465882 114.408191 -731.289064 959.149687 1316.917021 1212.956302 1613.119968 2067.409563 2483.643717 2993.612011 3501.922628 3964.085546 4379.315892 4752.872097 5082.162558 5370.911429 5623.719306 5849.632867 6061.591018 6276.651706 6512.284134 6782.933365 7097.437815 7457.418888 7854.760705 8268.689216 8667.164920 9020.180839 9325.074214 9599.908536 9866.997755 10137.658859 10413.019475 10702.008646 11028.350740 11416.349603 11845.149045 12263.182520 12620.811881 12906.694025 13133.686577 13369.752311 13600.104812 13769.061856 13825.057605 14270.226611 14079.972641 13819.121404 12828.820513 9403.284459 6141.434690 5474.946769 5474.946769 5474.946769 -0.000000 -0.000000 -0.000000 -0.000000 -0.000000 -0.000000 0.000000 0.000000 0.000000 0.000000 0.000000 0.000000 0.000000 0.000000 0.000000 0.000000 0.000000 0.000000 0.000000 0.000000 0.000000 0.000000 -0.000000 -0.000000 -0.000000 -0.000000 -0.000000 -0.000001 -0.000003 -0.000009 -0.000028 -0.000089 -0.000271 -0.000791 -0.002220 -0.005993 -0.015570 -0.038923 -0.093632 -0.216765 -0.483009 -1.036168 -2.140935 -4.263955 -8.196672 -15.242245 -27.517586 -48.498126 -84.111823 -145.060070 -251.719935 -444.002013 -799.549400 -1463.061990 -2693.691208 -3979.472658 -4484.515426 -636.175447 833.426741 -3110.612534 1392.672615 813.170273 499.971903 1745.433825 2815.362316 3216.080434 4510.280500 5611.734460 6623.989982 7557.136233 8454.967047 9266.060827 9973.765930 10559.465760 11033.208980 11426.307796 11784.027132 12146.125502 12536.441556 12965.199939 13441.312081 13975.889137 14582.575491 15244.545084 15895.967667 16483.048296 16986.466789 17394.366465 17690.780061 17865.218867 18020.925134 18293.029358 18852.877715 19619.441782 20221.420261 20494.440806 20402.951550 20370.094020 20404.549365 20894.559847 21694.787376 20311.646660 23679.353531 26422.209201 28080.533927 24439.413898 15203.899272 9217.070323 8211.854938 8211.854938 8211.854938 -0.000000 -0.000000 -0.000000 -0.000000 -0.000000 -0.000000 -0.000000 -0.000000 -0.000000 -0.000000 -0.000000 0.000000 0.000000 0.000000 0.000000 0.000000 0.000000 0.000000 0.000000 0.000000 0.000000 0.000000 0.000000 0.000000 0.000000 0.000000 0.000000 0.000000 0.000000 0.000000 0.000000 0.000000 0.000000 0.000000 0.000000 0.000000 0.000000 0.000000 0.000000 0.000000 0.000000 0.000000 0.000000 0.000000 0.000000 0.000000 0.000000 0.000000 0.000000 0.000000 0.000000 0.000000 0.000000 0.000000 0.000000 0.000000 0.000000 0.000000 0.000000 0.000000 0.000000 0.000000 0.000000 0.000000 0.000000 0.000000 0.000000 0.000000 0.000000 0.000000 0.000000 0.000000 0.000000 0.000000 0.000000 0.000000 0.000000 0.000000 0.000000 0.000000 0.000000 0.000000 0.000000 0.000000 0.000000 0.000000 0.000000 0.000000 0.000000 0.000000 0.000000 0.000000 0.000000 0.000000 0.000000 0.000000 0.000000 0.000000 0.000000 0.000000 0.000000 0.000000 0.000000 0.000000 0.000000 0.000000 0.000000 0.000000 0.000000 0.000000 0.000000 0.000000 0.000000 0.000000 0.000000 0.000000 0.000000 0.000000 0.000000 0.000000 0.000000 0.000000 0.000000 0.000000 0.000000 0.000000 0.000000 0.000000 0.000000 0.000000 0.000000 0.000000 0.000000 0.000000 0.000000 0.000000 0.000000 0.000000 0.000000 0.000000 0.000000 0.000000 0.000000 0.000000 0.000000 0.000000 0.000000 0.000000 0.000000 0.000000 0.000000 0.000000 0.000000 -0.000000 0.000000 0.000000 0.000000 0.000000 0.000000 -0.000000 0.000000 0.000000 0.000000 0.000000 0.000000 -0.000000 0.000000 0.000000 0.000000 0.000000 0.000000 -0.000000 0.000000 0.000000 0.000000 0.000000 0.000000 -0.000000 0.000000 0.000000 0.000000 0.000000 0.000000 -0.000000 0.000000 0.000000 0.000000 0.000000 0.000000 -0.000000 0.000000 0.000000 0.000000 0.000000 0.000000 -0.000000 0.000000 0.000000 0.000000 0.000000 0.000000 -0.000000 0.000000 0.000000 0.000000 0.000000 0.000000 -0.000000 0.000000 0.000000 0.000000 0.000000 0.000000 -0.000000 0.000000 0.000000 0.000000 0.000000 0.000000 -0.000000 0.000000 0.000000 0.000000 0.000000 0.000000 -0.000000 0.000000 0.000000 0.000000 0.000000 0.000000 0.000000 0.000000 0.000000 -0.000000 -0.000000 -0.000000 0.000000 -0.000000 0.000000 -0.000000 -0.000000 -0.000000 -0.000000 -0.000000 -0.000000 -0.000000 -0.000000 -0.000000 -0.000000 -0.000000 -0.000000 -0.000000 -0.000000 -0.000000 -0.000000 -0.000000 -0.000000 -0.000000 -0.000000 -0.000000 -0.000000 -0.000000 -0.000000 -0.000000 -0.000000 -0.000000 -0.000000 -0.000000 -0.000000 -0.000000 -0.000000 -0.000000 -0.000000 -0.000000 -0.000000 -0.000000 -0.000000 -0.000000 -0.000000 -0.000000 -0.000000 -0.000000 -0.000000 -0.000000 -0.000000 -0.000000 -0.000000 -0.000000 -0.000000 -0.000000 -0.000000 -0.000000 -0.000000 -0.000000 -0.000000 -0.000000 -0.000000 -0.000000 -0.000000 -0.000000 -0.000000 -0.000000 -0.000000 -0.000000 -0.000000 -0.000000 -0.000000 -0.000000 -0.000000 -0.000000 -0.000000 -0.000000 -0.000000 -0.000000 -0.000000 -0.000000 -0.000000 -0.000000 -0.000000 -0.000000 -0.000000 -0.000000 -0.000000 -0.000000 -0.000000 -0.000000 -0.000000 -0.000000 -0.000000 -0.000000 -0.000000 -0.000000 -0.000000 -0.000000 -0.000000 -0.000000 -0.000000 -0.000000 -0.000000 -0.000000 -0.000000 -0.000000 -0.000000 -0.000000 -0.000000 -0.000000 -0.000000 -0.000000 -0.000000 -0.000000 -0.000000 -0.000000 -0.000000 -0.000000 -0.000000 -0.000000 -0.000000 -0.000000 -0.000000 -0.000000 -0.000000 -0.000000 -0.000000 -0.000000 -0.000000 -0.000000 -0.000000 -0.000000 -0.000000 -0.000000 -0.000000 -0.000000 -0.000000 -0.000000 -0.000000 -0.000000 -0.000000 -0.000000 -0.000000 -0.000000 -0.000000 -0.000000 -0.000000 -0.000000 -0.000000 -0.000000 -0.000000 -0.000000 -0.000000 -0.000000 -0.000000 -0.000000 -0.000000 -0.000000 -0.000000 -0.000000 -0.000000 -0.000000 -0.000000 -0.000000 -0.000000 -0.000000 -0.000000 -0.000000 -0.000000 -0.000000 -0.000000 -0.000000 -0.000000 -0.000000 -0.000000 -0.000000 -0.000000 -0.000000 -0.000000 -0.000000 -0.000000 -0.000000 -0.000000 -0.000000 -0.000000 -0.000000 -0.000000 -0.000000 -0.000000 -0.000000 -0.000000 -0.000000 -0.000000 -0.000000 -0.000000 -0.000000 -0.000000 -0.000000 -0.000000 -0.000000 -0.000000 -0.000000 -0.000000 -0.000000 -0.000000 -0.000000 -0.000000 -0.000000 -0.000000 -0.000000 -0.000000 -0.000000 -0.000000 -0.000000 -0.000000 -0.000000 -0.000000 -0.000000 -0.000000 -0.000000 -0.000000 -0.000000 -0.000000 -0.000000 -0.000000 -0.000000 -0.000000 -0.000000 -0.000000 -0.000000 -0.000000 -0.000000 -0.000000 -0.000000 -0.000000 -0.000000 -0.000000 -0.000000 -0.000000 -0.000000 -0.000000 -0.000000 -0.000000 -0.000000 -0.000000 -0.000000 -0.000000 -0.000000 -0.000000 -0.000000 -0.000000 -0.000000 -0.000000 -0.000000 -0.000000 -0.000000 -0.000000 -0.000000 -0.000000 -0.000000 -0.000000 -0.000000 -0.000000 -0.000000 -0.000000 -0.000000 -0.000000 -0.000000 -0.000000 -0.000000 -0.000000 -0.000000 -0.000000 -0.000000 -0.000000 -0.000000 -0.000000 -0.000000 -0.000000 -0.000000 -0.000000 -0.000000 -0.000000 -0.000000 -0.000000 -0.000000 -0.000000 -0.000000 -0.000000 -0.000000 -0.000000 -0.000000 -0.000000 -0.000000 -0.000000 -0.000000 -0.000000 -0.000000 -0.000000 -0.000000 -0.000000 -0.000000 -0.000000 -0.000000 -0.000000 -0.000000 -0.000000 -0.000000 -0.000000 -0.000000 -0.000000 -0.000000 -0.000000 -0.000000 -0.000000 -0.000000 -0.000000 -0.000000 -0.000000 -0.000000 -0.000000 -0.000000 -0.000000 -0.000000 -0.000000 -0.000000 -0.000000 -0.000000 -0.000000 -0.000000 -0.000000 -0.000000 -0.000000 -0.000000 -0.000000 -0.000000 -0.000000 -0.000000 -0.000000 -0.000000 -0.000000 -0.000000 -0.000000 -0.000000 -0.000000 -0.000000 -0.000000 -0.000000 -0.000000 -0.000000 -0.000000 -0.000000 -0.000000 -0.000000 -0.000000 -0.000000 -0.000000 -0.000000 -0.000000 -0.000000 -0.000000 -0.000000 -0.000000 -0.000000 -0.000000 -0.000000 -0.000000 -0.000000 -0.000000 -0.000000 -0.000000 -0.000000 -0.000000 -0.000000 -0.000000 -0.000000 -0.000000 -0.000000 -0.000000 -0.000000 -0.000000 -0.000000 -0.000000 -0.000000 -0.000000 -0.000000 -0.000000 -0.000000 -0.000000 -0.000000 -0.000000 -0.000000 -0.000000 -0.000000 -0.000000 -0.000000 -0.000000 -0.000000 -0.000000 -0.000000 -0.000000 -0.000000 -0.000000 -0.000000 -0.000000 -0.000000 -0.000000 -0.000000 -0.000000 -0.000000 -0.000000 -0.000000 -0.000000 -0.000000 -0.000000 -0.000000 -0.000000 -0.000000 -0.000000 -0.000000 -0.000000 -0.000000 -0.000000 -0.000000 -0.000000 -0.000000 -0.000000 -0.000000 -0.000000 -0.000000 -0.000000 -0.000000 -0.000000 -0.000000 -0.000000 -0.000000 -0.000000 -0.000000 -0.000000 -0.000000 -0.000000 -0.000000 -0.000000 -0.000000 -0.000000 -0.000000 -0.000000 -0.000000 -0.000000 -0.000000 -0.000000 -0.000000 -0.000000 -0.000000 -0.000000 -0.000000 -0.000000 -0.000000 -0.000000 -0.000000 -0.000000 -0.000000 -0.000000 -0.000000 -0.000000 -0.000000 -0.000000 -0.000000 -0.000000 -0.000000 -0.000000 -0.000000 -0.000000 -0.000000 -0.000000 -0.000000 -0.000000 -0.000000 -0.000000 -0.000000 -0.000000 -0.000000 -0.000000 -0.000000 -0.000000 -0.000000 -0.000000 -0.000000 -0.000000 -0.000000 -0.000000 -0.000000 -0.000000 -0.000000 -0.000000 -0.000000 -0.000000 -0.000000 -0.000000 -0.000000 -0.000000 -0.000000 -0.000000 -0.000000 -0.000000 -0.000000 -0.000000 -0.000000 -0.000000 -0.000000 -0.000000 -0.000000 -0.000000 -0.000000 -0.000000 -0.000000 -0.000000 -0.000000 -0.000000 -0.000000 -0.000000 -0.000000 -0.000000 -0.000000 -0.000000 -0.000000 -0.000000 -0.000000 -0.000000 -0.000000 -0.000000 -0.000000 -0.000000 -0.000000 -0.000000 -0.000000 -0.000000 -0.000000 -0.000000 -0.000000 -0.000000 -0.000000 -0.000000 -0.000000 -0.000000 -0.000000 -0.000000 -0.000000 -0.000000 -0.000000 -0.000000 -0.000000 -0.000000 -0.000000 -0.000000 -0.000000 -0.000000 -0.000000 -0.000000 -0.000000 -0.000000 -0.000000 -0.000000 -0.000000 -0.000000 -0.000000 -0.000000 -0.000000 -0.000000 -0.000000 -0.000000 -0.000000 -0.000000 -0.000000 -0.000000 -0.000000 -0.000000 -0.000000 -0.000000 -0.000000 -0.000000 -0.000000 -0.000000 -0.000000 -0.000000 -0.000000 -0.000000 -0.000000 -0.000000 -0.000000 -0.000000 -0.000000 -0.000000 -0.000000 -0.000000 -0.000000 -0.000000 -0.000000 -0.000000 -0.000000 -0.000000 -0.000000 -0.000000 -0.000000 -0.000000 -0.000000 -0.000000 -0.000000 -0.000000 -0.000000 -0.000000 -0.000000 -0.000000 -0.000000 -0.000000 -0.000000 -0.000000 -0.000000 -0.000000 -0.000000 -0.000000 -0.000000 -0.000000 -0.000000 -0.000000 -0.000000 -0.000000 -0.000000 -0.000000 -0.000000 -0.000000 -0.000000 -0.000000 -0.000000 -0.000000 -0.000000 -0.000000 -0.000000 -0.000000 -0.000000 -0.000000 -0.000000 -0.000000 -0.000000 -0.000000 -0.000000 -0.000000 -0.000000 -0.000000 -0.000000 -0.000000 -0.000000 -0.000000 -0.000000 -0.000000 -0.000000 -0.000000 -0.000000 -0.000000 -0.000000 -0.000000 -0.000000 -0.000000 -0.000000 -0.000000 -0.000000 -0.000000 -0.000000 -0.000000 -0.000000 -0.000000 -0.000000 -0.000000 -0.000000 -0.000000 -0.000000 -0.000000 -0.000000 -0.000000 -0.000000 -0.000000 -0.000000 -0.000000 -0.000000 -0.000000 -0.000000 -0.000000 -0.000000 -0.000000 -0.000000 -0.000000 -0.000000 -0.000000 -0.000000 -0.000000 -0.000000 -0.000000 -0.000000 -0.000000 -0.000000 -0.000000 -0.000000 -0.000000 -0.000000 -0.000000 -0.000000 -0.000000 -0.000000 -0.000000 -0.000000 -0.000000 -0.000000 -0.000000 -0.000000 -0.000000 -0.000000 -0.000000 -0.000000 -0.000000 -0.000000 -0.000000 -0.000000 -0.000000 -0.000000 -0.000000 -0.000000 -0.000000 0.000000 -0.000000 -0.000000 -0.000000 -0.000000 -0.000000 -0.000000 -0.000000 -0.000000 -0.000000 -0.000000 -0.000000 -0.000000 -0.000000 -0.000000 -0.000000 -0.000000 -0.000000 -0.000000 -0.000000 -0.000000 -0.000000 -0.000000 -0.000000 -0.000000 -0.000000 -0.000000 -0.000000 -0.000000 -0.000000 -0.000000 -0.000000 -0.000000 -0.000000 -0.000000 -0.000000 -0.000000 -0.000000 -0.000000 -0.000000 -0.000000 -0.000000 -0.000000 -0.000000 -0.000000 -0.000000 -0.000000 -0.000000 -0.000000 -0.000000 -0.000000 -0.000000 -0.000000 -0.000000 -0.000000 -0.000000 -0.000000 -0.000000 -0.000000 -0.000000 -0.000000 -0.000000 -0.000000 -0.000000 -0.000000 -0.000000 -0.000000 -0.000000 -0.000000 -0.000000 -0.000000 -0.000000 -0.000000 -0.000000 -0.000000 -0.000000 -0.000000 -0.000000 -0.000000 -0.000000 -0.000000 -0.000000 -0.000000 -0.000000 -0.000000 -0.000000 -0.000000 -0.000000 -0.000000 -0.000000 -0.000000 -0.000000 -0.000000 -0.000000 -0.000000 -0.000000 -0.000000 -0.000000 -0.000000 -0.000000 -0.000000 -0.000000 -0.000000 -0.000000 -0.000000 -0.000000 -0.000000 -0.000000 -0.000000 -0.000000 -0.000000 -0.000000 -0.000000 -0.000000 -0.000000 -0.000000 -0.000000 -0.000000 -0.000000 -0.000000 -0.000000 -0.000000 -0.000000 -0.000000 -0.000000 -0.000000 -0.000000 -0.000000 -0.000000 -0.000000 -0.000000 -0.000000 -0.000000 -0.000000 -0.000000 -0.000000 -0.000000 -0.000000 -0.000000 -0.000000 -0.000000 -0.000000 -0.000000 -0.000000 -0.000000 -0.000000 -0.000000 -0.000000 -0.000000 -0.000000 -0.000000 -0.000000 -0.000000 -0.000000 -0.000000 -0.000000 -0.000000 -0.000000 -0.000000 -0.000000 -0.000000 -0.000000 -0.000000 -0.000000 -0.000000 -0.000000 -0.000000 -0.000000 -0.000000 -0.000000 -0.000000 -0.000000 -0.000000 -0.000000 -0.000000 -0.000000 -0.000000 -0.000000 -0.000000 -0.000000 -0.000000 -0.000000 -0.000000 -0.000000 -0.000000 -0.000000 -0.000000 -0.000000 -0.000000 -0.000000 -0.000000 -0.000000 -0.000000 -0.000000 -0.000000 -0.000000 -0.000000 -0.000000 -0.000000 -0.000000 -0.000000 -0.000000 -0.000000 -0.000000 -0.000000 -0.000000 -0.000000 -0.000000 -0.000000 -0.000000 -0.000000 -0.000000 -0.000000 -0.000000 -0.000000 -0.000000 -0.000000 -0.000000 -0.000000 -0.000000 -0.000000 0.000000 -0.000000 0.000000 -0.000000 -0.000000 -0.000000 -0.000000 0.000000 0.000000 -0.000000 -0.000000 -0.000000 0.000000 -0.000000 0.000000 0.000000 0.000000 0.000000 0.000000 -0.000000 -0.000000 -0.000000 -0.000000 -0.000000 -0.000000 -0.000000 -0.000000 -0.000000 -0.000000 -0.000000 -0.000000 -0.000000 -0.000000 -0.000000 -0.000000 -0.000000 -0.000000 -0.000000 -0.000000 -0.000000 -0.000000 -0.000000 -0.000000 -0.000000 -0.000000 -0.000000 -0.000000 -0.000000 -0.000000 -0.000000 -0.000000 -0.000000 -0.000000 -0.000000 -0.000000 -0.000000 -0.000000 -0.000000 -0.000000 -0.000000 -0.000000 -0.000000 -0.000000 -0.000000 -0.000000 -0.000000 -0.000000 -0.000000 -0.000000 -0.000000 -0.000000 -0.000000 -0.000001 -0.000003 -0.000011 -0.000037 -0.000116 -0.000352 -0.001030 -0.002898 -0.007838 -0.020373 -0.050861 -0.121878 -0.280066 -0.616348 -1.296737 -2.601930 -4.963135 -8.960437 -15.218278 -24.098465 -35.075837 -45.708412 -50.169792 -37.316791 11.731180 125.462649 332.687212 629.715669 121.491278 -1198.315938 207.334669 785.595366 387.305995 769.993708 756.759851 772.338253 895.794925 1314.362142 1720.302613 2681.706514 3425.923894 4819.359559 7033.819047 6570.415586 10356.635846 12884.779908 7710.630167 3868.502114 9704.534117 12416.524369 7224.504865 6442.797313 6442.797313 6442.797313 0.000000 0.000000 0.000000 0.000000 -0.000000 -0.000000 -0.000000 -0.000000 -0.000000 -0.000000 -0.000000 -0.000000 -0.000000 -0.000000 -0.000000 -0.000000 -0.000000 -0.000000 -0.000000 -0.000000 -0.000000 -0.000000 -0.000000 -0.000000 -0.000000 -0.000000 -0.000000 -0.000000 -0.000000 -0.000000 -0.000000 -0.000000 -0.000000 -0.000000 -0.000000 -0.000000 -0.000000 -0.000000 -0.000000 -0.000000 -0.000000 -0.000000 -0.000000 -0.000000 -0.000000 -0.000000 -0.000000 -0.000000 -0.000000 -0.000000 -0.000000 -0.000000 -0.000000 -0.000000 -0.000000 -0.000000 -0.000000 -0.000001 -0.000004 -0.000013 -0.000043 -0.000135 -0.000407 -0.001179 -0.003286 -0.008803 -0.022663 -0.056040 -0.132998 -0.302648 -0.659463 -1.373448 -2.727389 -5.147409 -9.192832 -15.443047 -24.193499 -34.873449 -45.152709 -49.815601 -39.610482 -0.528083 84.492425 221.594751 326.307460 -9.341981 -210.098411 844.684847 1551.435503 1950.660126 2530.496859 2964.841558 3338.355332 3713.421386 4131.582728 4574.005917 5149.466306 5761.511360 6878.623477 8039.198270 8064.833805 9141.286956 9120.820567 6986.631454 5691.706379 6187.060032 7405.392881 5431.965025 4946.190662 4946.190662 4946.190662 0.000000 0.000000 0.000000 0.000000 0.000000 0.000000 0.000000 0.000000 -0.000000 0.000000 0.000000 0.000000 0.000000 0.000000 -0.000000 -0.000000 -0.000000 -0.000000 -0.000000 -0.000000 -0.000000 -0.000000 -0.000000 -0.000000 -0.000000 -0.000000 -0.000000 -0.000000 -0.000000 -0.000000 -0.000000 -0.000000 -0.000000 -0.000000 -0.000000 -0.000000 -0.000000 -0.000000 -0.000000 -0.000000 -0.000000 -0.000000 -0.000000 -0.000000 -0.000000 -0.000000 -0.000000 -0.000000 -0.000000 -0.000000 -0.000000 -0.000000 -0.000000 -0.000000 -0.000000 -0.000000 -0.000000 -0.000001 -0.000005 -0.000016 -0.000052 -0.000160 -0.000478 -0.001371 -0.003780 -0.010022 -0.025534 -0.062482 -0.146735 -0.330374 -0.712120 -1.466769 -2.879743 -5.371662 -9.478535 -15.728617 -24.340026 -34.679343 -44.501406 -49.147436 -41.087593 -10.432348 52.576878 151.150706 271.380562 411.927505 671.655432 1145.111555 1717.558832 2294.926767 2879.383122 3453.271836 4005.128523 4539.360705 5062.041530 5582.563454 6121.568382 6706.747829 7365.181509 8016.100690 8551.408997 8880.713172 8788.579133 8412.501544 8055.784301 7103.729691 5796.944324 4368.293705 4068.930581 4068.930581 4068.930581 -0.000000 -0.000000 -0.000000 -0.000000 -0.000000 0.000000 0.000000 -0.000000 -0.000000 0.000000 0.000000 0.000000 0.000000 0.000000 -0.000000 -0.000000 -0.000000 -0.000000 -0.000000 -0.000000 -0.000000 -0.000000 -0.000000 -0.000000 -0.000000 -0.000000 -0.000000 -0.000000 -0.000000 -0.000000 -0.000000 -0.000000 -0.000000 -0.000000 -0.000000 -0.000000 -0.000000 -0.000000 -0.000000 -0.000000 -0.000000 -0.000000 -0.000000 -0.000000 -0.000000 -0.000000 -0.000000 -0.000000 -0.000000 -0.000000 -0.000000 -0.000000 -0.000000 -0.000000 -0.000000 -0.000000 -0.000000 -0.000001 -0.000005 -0.000017 -0.000053 -0.000165 -0.000492 -0.001407 -0.003874 -0.010253 -0.026076 -0.063692 -0.149306 -0.335541 -0.721901 -1.484057 -2.907918 -5.413134 -9.531554 -15.782267 -24.369334 -34.646954 -44.380779 -48.997548 -41.232888 -11.800675 48.206910 143.260070 272.743784 451.743552 739.821216 1180.473656 1720.012663 2293.607714 2877.010732 3455.089271 4018.794897 4567.133680 5102.953531 5634.023188 6177.031680 6755.487087 7381.864535 8009.056748 8538.111728 8832.906892 8765.028641 8460.448892 8039.190237 7157.779695 5578.329057 4219.625994 3945.303286 3945.303286 3945.303286 -0.000000 -0.000000 -0.000000 -0.000000 -0.000000 0.000000 0.000000 -0.000000 0.000000 0.000000 0.000000 0.000000 0.000000 0.000000 -0.000000 -0.000000 -0.000000 -0.000000 -0.000000 -0.000000 -0.000000 -0.000000 -0.000000 -0.000000 -0.000000 -0.000000 -0.000000 -0.000000 -0.000000 -0.000000 -0.000000 -0.000000 -0.000000 -0.000000 -0.000000 -0.000000 -0.000000 -0.000000 -0.000000 -0.000000 -0.000000 -0.000000 -0.000000 -0.000000 -0.000000 -0.000000 -0.000000 -0.000000 -0.000000 -0.000000 -0.000000 -0.000000 -0.000000 -0.000000 -0.000000 -0.000000 -0.000000 -0.000001 -0.000005 -0.000017 -0.000053 -0.000165 -0.000492 -0.001407 -0.003874 -0.010253 -0.026076 -0.063692 -0.149306 -0.335541 -0.721901 -1.484057 -2.907918 -5.413134 -9.531554 -15.782267 -24.369334 -34.646954 -44.380779 -48.997548 -41.232888 -11.800675 48.206910 143.260070 272.743784 451.743552 739.821216 1180.473656 1720.012663 2293.607714 2877.010732 3455.089271 4018.794897 4567.133680 5102.953531 5634.023188 6177.031680 6755.487087 7381.864535 8009.056748 8538.111728 8832.906892 8765.028641 8460.448892 8039.190237 7157.779695 5578.329057 4219.625994 3945.303286 3945.303286 3945.303286 -0.000000 -0.000000 -0.000000 -0.000000 -0.000000 0.000000 0.000000 -0.000000 0.000000 0.000000 0.000000 0.000000 0.000000 0.000000 -0.000000 -0.000000 -0.000000 -0.000000 -0.000000 -0.000000 -0.000000 -0.000000 -0.000000 -0.000000 -0.000000 -0.000000 -0.000000 -0.000000 -0.000000 -0.000000 -0.000000 -0.000000 -0.000000 -0.000000 -0.000000 -0.000000 -0.000000 -0.000000 -0.000000 -0.000000 -0.000000 -0.000000 -0.000000 -0.000000 -0.000000 -0.000000 -0.000000 -0.000000 -0.000000 -0.000000 -0.000000 -0.000000 -0.000000 -0.000000 -0.000000 -0.000000 -0.000000 -0.000001 -0.000005 -0.000017 -0.000053 -0.000165 -0.000492 -0.001407 -0.003874 -0.010253 -0.026076 -0.063692 -0.149306 -0.335541 -0.721901 -1.484057 -2.907918 -5.413134 -9.531554 -15.782267 -24.369334 -34.646954 -44.380779 -48.997548 -41.232888 -11.800675 48.206910 143.260070 272.743784 451.743552 739.821216 1180.473656 1720.012663 2293.607714 2877.010732 3455.089271 4018.794897 4567.133680 5102.953531 5634.023188 6177.031680 6755.487087 7381.864535 8009.056748 8538.111728 8832.906892 8765.028641 8460.448892 8039.190237 7157.779695 5578.329057 4219.625994 3945.303286 3945.303286 3945.303286 -4429.500114 -4461.201660 383.158253 -168.537771 -3186.581961 1654.869052 -217.583266 373.382194 1947.701284 2961.637537 3558.912537 5022.338687 6186.834057 7297.793215 8323.290413 9303.152355 10162.193764 10887.076589 11466.830301 11934.827375 12335.591978 12717.418074 13136.141269 13615.057390 14140.564129 14686.087668 15247.768513 15841.858998 16464.451650 17082.271406 17651.016160 18154.585156 18581.742796 18912.277480 19120.701002 19334.922377 19660.463842 20284.145375 20977.102408 21400.633783 21445.066541 21227.144593 21368.900909 21285.690237 22321.295320 22679.951214 21490.683585 26736.109283 30056.002530 31385.043453 24182.287700 13770.573134 9133.190028 8548.844616 8548.844616 8548.844616 2110.709157 383.115407 4688.851850 1711.280342 4375.857005 5689.901462 7406.538240 8740.724521 10115.312619 11645.847598 13123.880231 14584.556976 15920.380849 17112.799452 18156.464126 19086.394439 19935.911484 20733.384214 21482.777444 22180.636055 22796.684740 23276.094216 23586.990699 23768.789704 23936.106813 24236.766697 24750.465393 25437.861038 26168.616837 26824.292410 27392.285427 27891.862964 28500.582951 29169.033562 29661.441444 30086.236125 29786.659010 29204.776467 28424.924699 28131.205428 28984.325317 29064.958280 29625.950616 32225.272135 32143.508077 33654.438258 39172.743264 50566.407141 49030.187752 32214.191984 33452.727382 18017.492701 10963.478860 10410.608085 10410.608085 10410.608085 541.985898 2286.631520 2268.067829 4334.669008 8332.391766 9192.166861 11603.598382 13733.811485 15682.693812 17717.547176 19448.074729 21037.120001 22304.045054 23347.544624 24221.069628 25046.988437 25888.237191 26770.060060 27678.269527 28587.212099 29473.077641 30296.908538 31010.394969 31594.961153 32092.403389 32600.442134 33184.664455 33821.689808 34408.465770 34835.576505 35174.027478 35548.161318 36334.418467 37469.623177 38281.703600 38911.053713 38260.399108 37398.099296 36884.875799 37187.923275 39390.089682 39299.728822 39765.708663 41296.871676 41502.847463 43963.027241 42450.926353 46896.357752 35051.390402 47167.731288 40604.244758 28538.220853 14394.330687 12766.508319 12766.508319 12766.508319 374.765276 396.573174 3050.433232 4850.529538 5677.881308 7768.054195 10451.382412 12297.285757 14613.997706 16761.133516 18746.800890 20579.166941 22148.533371 23568.387142 24841.670973 26043.274469 27176.322746 28246.337086 29251.376621 30199.058747 31087.934921 31903.584404 32638.564957 33326.083618 34041.512189 34886.725847 35876.807492 36905.755339 37812.629797 38446.462157 38940.994793 39395.858933 40096.820562 41218.880053 41921.124350 42610.416357 42489.015430 41526.974715 41878.586232 41658.381102 44562.459489 45391.730982 45005.084094 46823.878732 44329.032797 49022.017432 50965.230303 45035.879147 40308.719533 24542.823031 29742.783682 34485.563447 17337.093212 14606.096456 14606.096456 14606.096456 389.736213 2556.393798 3465.925324 4028.435595 6484.659938 8377.159472 9855.055626 11767.107213 13938.342178 15733.839641 17642.923100 19322.659750 20859.809165 22282.275496 23598.117478 24854.528144 26046.607935 27193.640017 28309.741755 29401.800219 30438.388748 31360.880044 32134.344940 32808.001312 33500.787829 34357.448471 35399.337341 36488.265723 37435.075523 38048.483075 38529.228828 39047.740645 39869.222680 41245.748111 42245.239081 42924.463947 43253.527542 41996.208924 42167.158117 42269.039061 44238.296990 47841.240458 47734.468295 49697.507210 47236.939948 46090.520592 50488.430887 51202.306876 60973.664075 33830.676232 45661.187829 27135.382462 16971.888869 15769.304007 15769.304007 15769.304007 431.262541 1325.018993 2734.054003 4868.160383 6633.837068 8100.105252 10337.229375 12559