<VTKFile type="PolyData">
<PolyData>
<Piece NumberOfPoints="8632" NumberOfVerts="8632" NumberOfLines="0" NumberOfStrips="0" NumberOfPolys="0">
<PointData>
<DataArray type="Float64" Name="Pressure" format="ascii">
 -0.210152 -0.210152 -0.210152 -0.216089 -0.283228 -0.460158 -0.670052 -0.925288 -1.234098 -1.607522 -2.060173 -2.609850 -3.277457 -4.087191 -5.066881 -6.248376 -7.667976 -9.366858 -11.391510 -13.794143 -16.633092 -19.973179 -23.886046 -28.450435 -33.752407 -39.885503 -46.950810 -55.056947 -64.319942 -74.862990 -86.816076 -100.315444 -115.502899 -132.524905 -151.531475 -172.674811 -196.107675 -221.981475 -250.444047 -281.637123 -315.693504 -352.733965 -392.863962 -436.170231 -482.717441 -532.545083 -585.664796 -642.058201 -701.674800 -764.427885 -830.182215 -898.716576 -969.618743 -1042.018882 -1113.986622 -1181.835602 -1240.218468 -1281.146206 -1289.013593 -1237.565075 -1105.815474 -929.134227 -786.319663 -671.341591 -526.201007 -370.371667 -286.382597 -274.501715 -267.619325 -208.626221 -115.347754 -74.934090 -101.799429 -122.569179 -78.008800 -4.485470 19.634073 14.303771 56.391238 152.742615 216.338236 210.129564 196.036072 257.086792 410.361829 574.958443 687.290804 787.878144 968.420632 1296.462084 1748.468941 2221.004464 2660.057067 3088.132198 3544.484522 4054.710704 4620.783523 5218.198622 5829.100155 6448.269214 7061.660769 7651.064406 8203.839970 8722.410182 9220.748704 9684.256056 10076.540025 10310.159386 10351.843658 10351.843658 10351.843658 -0.210152 -0.210152 -0.210152 -0.216089 -0.283228 -0.460158 -0.670052 -0.925288 -1.234098 -1.607522 -2.060173 -2.609850 -3.277457 -4.087191 -5.066881 -6.248376 -7.667976 -9.366858 -11.391510 -13.794143 -16.633092 -19.973179 -23.886046 -28.450435 -33.752407 -39.885503 -46.950810 -55.056947 -64.319942 -74.862990 -86.816076 -100.315444 -115.502899 -132.524905 -151.531475 -172.674811 -196.107675 -221.981475 -250.444047 -281.637123 -315.693504 -352.733965 -392.863962 -436.170231 -482.717441 -532.545083 -585.664796 -642.058201 -701.674800 -764.427885 -830.182215 -898.716576 -969.618743 -1042.018882 -1113.986622 -1181.835602 -1240.218468 -1281.146206 -1289.013593 -1237.565075 -1105.815474 -929.134227 -786.319663 -671.341591 -526.201007 -370.371667 -286.382597 -274.501715 -267.619325 -208.626221 -115.347754 -74.934090 -101.799429 -122.569179 -78.008800 -4.485470 19.634073 14.303771 56.391238 152.742615 216.338236 210.129564 196.036072 257.086792 410.361829 574.958443 687.290804 787.878144 968.420632 1296.462084 1748.468941 2221.004464 2660.057067 3088.132198 3544.484522 4054.710704 4620.783523 5218.198622 5829.100155 6448.269214 7061.660769 7651.064406 8203.839970 8722.410182 9220.748704 9684.256056 10076.540025 10310.159386 10351.843658 10351.843658 10351.843658 -0.210152 -0.210152 -0.210152 -0.216089 -0.283228 -0.460158 -0.670052 -0.925288 -1.234098 -1.607522 -2.060173 -2.609850 -3.277457 -4.087191 -5.066881 -6.248376 -7.667976 -9.366858 -11.391510 -13.794143 -16.633092 -19.973179 -23.886046 -28.450435 -33.752407 -39.885503 -46.950810 -55.056947 -64.319942 -74.862990 -86.816076 -100.315444 -115.502899 -132.524905 -151.531475 -172.674811 -196.107675 -221.981475 -250.444047 -281.637123 -315.693504 -352.733965 -392.863962 -436.170231 -482.717441 -532.545083 -585.664796 -642.058201 -701.674800 -764.427885 -830.182215 -898.716576 -969.618743 -1042.018882 -1113.986622 -1181.835602 -1240.218468 -1281.146206 -1289.013593 -1237.565075 -1105.815474 -929.134227 -786.319663 -671.341591 -526.201007 -370.371667 -286.382597 -274.501715 -267.619325 -208.626221 -115.347754 -74.934090 -101.799429 -122.569179 -78.008800 -4.485470 19.634073 14.303771 56.391238 152.742615 216.338236 210.129564 196.036072 257.086792 410.361829 574.958443 687.290804 787.878144 968.420632 1296.462084 1748.468941 2221.004464 2660.057067 3088.132198 3544.484522 4054.710704 4620.783523 5218.198622 5829.100155 6448.269214 7061.660769 7651.064406 8203.839970 8722.410182 9220.748704 9684.256056 10076.540025 10310.159386 10351.843658 10351.843658 10351.843658 -0.208584 -0.208584 -0.208584 -0.214389 -0.280916 -0.456457 -0.666501 -0.922858 -1.232454 -1.606115 -2.058698 -2.608152 -3.275446 -4.084799 -5.064044 -6.245029 -7.664049 -9.362277 -11.386192 -13.788002 -16.626035 -19.965109 -23.876863 -28.440035 -33.740684 -39.872348 -46.936115 -55.040606 -64.301852 -74.843053 -86.794201 -100.291549 -115.476914 -132.496776 -151.501167 -172.642310 -196.072993 -221.944657 -250.405173 -281.596311 -315.650920 -352.689824 -392.818539 -436.123877 -482.670621 -532.498472 -585.619532 -642.016534 -701.641740 -764.415384 -830.219661 -898.876657 -970.077995 -1043.181966 -1116.516887 -1186.486227 -1247.888966 -1294.352014 -1312.497304 -1272.738276 -1146.017733 -927.940671 -784.512995 -688.300987 -540.626024 -343.219841 -266.029849 -275.301234 -288.271936 -225.420487 -94.625352 -51.578709 -104.148692 -147.380478 -90.377163 13.149408 30.030687 -5.121627 32.338117 163.085205 241.839045 213.187445 168.092833 219.934633 404.303195 594.596545 692.517130 759.814089 912.297738 1246.184976 1741.672199 2240.628104 2680.560768 3105.384147 3560.201026 4072.426850 4653.828667 5263.183277 5877.469242 6501.135478 7117.290860 7707.615229 8259.332516 8769.422696 9264.006624 9728.419502 10108.329313 10323.954270 10361.461114 10361.461114 10361.461114 -0.191773 -0.191773 -0.191773 -0.196313 -0.252969 -0.406927 -0.620634 -0.897180 -1.215935 -1.592117 -2.043995 -2.591207 -3.255367 -4.060911 -5.035715 -6.211606 -7.624832 -9.316511 -11.333066 -13.726647 -16.555531 -19.884488 -23.785115 -28.336118 -33.623533 -39.740885 -46.789263 -54.877302 -64.121065 -74.643799 -86.575568 -100.052719 -115.217191 -132.215615 -151.198208 -172.317417 -195.726295 -221.576591 -250.016529 -281.188283 -315.225153 -352.248473 -392.364348 -435.660339 -482.202346 -532.032134 -585.166304 -641.598357 -701.307342 -764.280892 -830.570964 -900.425173 -974.588506 -1054.862898 -1145.161872 -1240.376439 -1332.523636 -1439.728360 -1574.257299 -1777.457811 -1639.057181 -800.448190 -678.573700 -997.773730 -762.191258 86.863630 57.862455 -289.889338 -606.435743 -562.292632 258.514400 355.393286 -142.524154 -564.551149 -348.802186 419.493972 223.400641 -294.847046 -425.659573 368.100518 673.539940 272.574391 -208.085326 -371.206472 340.103039 972.030186 805.327482 420.420249 171.054216 511.432122 1718.232613 2555.860381 2964.470842 3350.406382 3762.814849 4242.773951 5022.151171 5797.212850 6436.849486 7116.341397 7755.131408 8350.957696 8916.686896 9325.910548 9751.602339 10211.717077 10450.808667 10466.462415 10459.281089 10459.281089 10459.281089 -0.168566 -0.168566 -0.168566 -0.172038 -0.212218 -0.319885 -0.521336 -0.854256 -1.193762 -1.575092 -2.026920 -2.571857 -3.232565 -4.033826 -5.003606 -6.173722 -7.580376 -9.264622 -11.272819 -13.657056 -16.475547 -19.793010 -23.680995 -28.218170 -33.490544 -39.591628 -46.622511 -54.691844 -63.915723 -74.417455 -86.327180 -99.781355 -114.922052 -131.896077 -150.853856 -171.948090 -195.332132 -221.158081 -249.574566 -280.724222 -314.740869 -351.746437 -391.847747 -435.133312 -481.670564 -531.504242 -584.657639 -641.140438 -700.971998 -764.241401 -831.256759 -902.915485 -981.634064 -1073.756055 -1196.441928 -1318.696492 -1435.156255 -1612.330355 -1892.070496 -2421.105982 -2079.727674 -384.588915 -438.912840 -1494.215655 -1140.656651 656.604149 537.460906 -311.577074 -1157.616277 -1223.100486 796.828112 1071.973934 -197.737222 -1425.137309 -941.087283 1339.258840 729.095630 -1022.237920 -1767.393439 993.375904 1857.389682 391.970852 -871.581999 -1901.381781 297.339235 2193.701083 1090.495347 -10.553357 -1293.047990 -1409.407672 2160.797510 3504.638076 3396.941638 3894.540251 4384.798542 3957.408243 5491.919185 6837.193721 7178.276608 8047.469167 8616.055744 8885.019064 9760.815307 9888.553607 9905.729052 10303.312094 10454.598288 10591.084354 10561.840623 10561.840623 10561.840623 -0.165406 -0.165406 -0.165406 -0.168723 -0.206773 -0.306303 -0.144401 -0.144401 -0.144401 -0.146541 -0.170928 -0.224467 -0.113557 -0.113557 -0.113557 -0.114503 -0.124518 -0.141495 -0.087572 -0.087572 -0.087572 -0.087927 -0.091436 -0.097207 -0.066718 -0.066718 -0.066718 -0.066822 -0.067824 -0.069599 -0.050404 -0.050404 -0.050404 -0.050416 -0.050524 -0.050887 -0.037834 -0.037834 -0.037834 -0.037818 -0.037645 -0.037543 -0.028245 -0.028245 -0.028245 -0.028222 -0.027992 -0.027769 -0.020982 -0.020982 -0.020982 -0.020961 -0.020748 -0.020522 -0.015514 -0.015514 -0.015514 -0.015496 -0.015320 -0.015127 -0.011418 -0.011418 -0.011418 -0.011404 -0.011265 -0.011111 -0.008366 -0.008366 -0.008366 -0.008355 -0.008248 -0.008129 -0.006102 -0.006102 -0.006102 -0.006094 -0.006013 -0.005923 -0.004431 -0.004431 -0.004431 -0.004425 -0.004364 -0.004296 -0.003204 -0.003204 -0.003204 -0.003199 -0.003154 -0.003103 -0.002306 -0.002306 -0.002306 -0.002302 -0.002269 -0.002231 -0.001652 -0.001652 -0.001652 -0.001650 -0.001625 -0.001597 -0.001179 -0.001179 -0.001179 -0.001177 -0.001159 -0.001138 -0.000837 -0.000837 -0.000837 -0.000836 -0.000823 -0.000808 -0.000592 -0.000592 -0.000592 -0.000591 -0.000581 -0.000571 -0.000417 -0.000417 -0.000417 -0.000416 -0.000409 -0.000401 -0.000292 -0.000292 -0.000292 -0.000291 -0.000286 -0.000281 -0.000204 -0.000204 -0.000204 -0.000203 -0.000200 -0.000196 -0.000142 -0.000142 -0.000142 -0.000141 -0.000139 -0.000136 -0.000098 -0.000098 -0.000098 -0.000098 -0.000096 -0.000094 -0.000067 -0.000067 -0.000067 -0.000067 -0.000066 -0.000065 -0.000046 -0.000046 -0.000046 -0.000046 -0.000045 -0.000044 -0.000032 -0.000032 -0.000032 -0.000031 -0.000031 -0.000030 -0.000021 -0.000021 -0.000021 -0.000021 -0.000021 -0.000020 -0.000014 -0.000014 -0.000014 -0.000014 -0.000014 -0.000014 -0.000010 -0.000010 -0.000010 -0.000010 -0.000010 -0.000009 -0.000007 -0.000007 -0.000007 -0.000007 -0.000006 -0.000006 -0.000004 -0.000004 -0.000004 -0.000004 -0.000004 -0.000004 -0.000003 -0.000003 -0.000003 -0.000003 -0.000003 -0.000003 -0.000002 -0.000002 -0.000002 -0.000002 -0.000002 -0.000002 -0.000001 -0.000001 -0.000001 -0.000001 -0.000001 -0.000001 -0.000001 -0.000001 -0.000001 -0.000001 -0.000001 -0.000001 -0.000001 -0.000001 -0.000001 -0.000001 -0.000001 -0.000001 -0.000000 -0.000000 -0.000000 -0.000000 -0.000000 -0.000000 -0.000000 -0.000000 -0.000000 -0.000000 -0.000000 -0.000000 -0.000000 -0.000000 -0.000000 -0.000000 -0.000000 -0.000000 -0.000000 -0.000000 -0.000000 -0.000000 -0.000000 -0.000000 -0.000000 -0.000000 -0.000000 -0.000000 -0.000000 -0.000000 -0.000000 -0.000000 -0.000000 -0.000000 -0.000000 -0.000000 -0.000000 -0.000000 -0.000000 -0.000000 -0.000000 -0.000000 -0.000000 -0.000000 -0.000000 -0.000000 -0.000000 -0.000000 -0.000000 -0.000000 -0.000000 -0.000000 -0.000000 -0.000000 -0.000000 -0.000000 -0.000000 -0.000000 -0.000000 -0.000000 -0.000000 -0.000000 -0.000000 -0.000000 -0.000000 -0.000000 -0.000000 -0.000000 -0.000000 -0.000000 -0.000000 -0.000000 -0.000000 -0.000000 -0.000000 -0.000000 -0.000000 -0.000000 -0.000000 -0.000000 -0.000000 -0.000000 -0.000000 -0.000000 -0.000000 -0.000000 -0.000000 -0.000000 -0.000000 -0.000000 -0.000000 -0.000000 -0.000000 -0.000000 -0.000000 -0.000000 -0.000000 -0.000000 -0.000000 -0.000000 -0.000000 -0.000000 -0.000000 -0.000000 -0.000000 -0.000000 -0.000000 -0.000000 -0.000000 -0.000000 -0.000000 -0.000000 -0.000000 -0.000000 -0.000000 -0.000000 -0.000000 -0.000000 -0.000000 -0.000000 -0.000000 -0.000000 -0.000000 -0.000000 -0.000000 -0.000000 -0.000000 -0.000000 -0.000000 -0.000000 -0.000000 -0.000000 -0.000000 -0.000000 -0.000000 -0.000000 -0.000000 -0.000000 -0.000000 -0.000000 -0.000000 -0.000000 -0.000000 -0.000000 -0.000000 -0.000000 -0.000000 -0.000000 -0.000000 -0.000000 -0.000000 -0.000000 -0.000000 -0.000000 -0.000000 -0.000000 -0.000000 -0.000000 -0.000000 -0.000000 -0.000000 -0.000000 -0.000000 -0.000000 -0.000000 -0.000000 -0.000000 -0.000000 -0.000000 -0.000000 -0.000000 -0.000000 -0.000000 -0.000000 -0.000000 -0.000000 -0.000000 -0.000000 -0.000000 -0.000000 -0.000000 -0.000000 -0.000000 -0.000000 -0.000000 -0.000000 -0.000000 -0.000000 -0.000000 -0.000000 -0.000000 -0.000000 -0.000000 -0.000000 -0.000000 -0.000000 -0.000000 -0.000000 -0.000000 -0.000000 -0.000000 -0.000000 -0.000000 -0.000000 -0.000000 -0.000000 -0.000000 -0.000000 -0.000000 -0.000000 -0.000000 -0.000000 -0.000000 -0.000000 -0.000000 -0.000000 -0.000000 -0.000000 -0.000000 -0.000000 -0.000000 -0.000000 -0.000000 -0.000000 -0.000000 -0.000000 -0.000000 -0.000000 -0.000000 -0.000000 -0.000000 -0.000000 -0.000000 -0.000000 -0.000000 -0.000000 -0.000000 -0.000000 -0.000000 -0.000000 -0.000000 -0.000000 -0.000000 -0.000000 -0.000000 -0.000000 -0.000000 -0.000000 -0.000000 -0.000000 -0.000000 -0.000000 -0.000000 -0.000000 -0.000000 -0.000000 -0.000000 -0.000000 -0.000000 -0.000000 -0.000000 -0.000000 -0.000000 -0.000000 -0.000000 -0.000000 -0.000000 -0.000000 -0.000000 -0.000000 -0.000000 -0.000000 -0.000000 -0.000000 -0.000000 -0.000000 -0.000000 -0.000000 -0.000000 -0.000000 -0.000000 -0.000000 -0.000000 -0.000000 -0.000000 -0.000000 -0.000000 -0.000000 -0.000000 -0.000000 -0.000000 -0.000000 -0.000000 -0.000000 -0.000000 -0.000000 -0.000000 -0.000000 -0.000000 -0.000000 -0.000000 -0.000000 -0.000000 -0.000000 -0.000000 -0.000000 -0.000000 -0.000000 -0.000000 -0.000000 -0.000000 -0.000000 -0.000000 -0.000000 -0.000000 -0.000000 -0.000000 -0.000000 -0.000000 -0.000000 -0.000000 -0.000000 -0.000000 -0.000000 -0.000000 -0.000000 -0.000000 -0.000000 -0.000000 -0.000000 -0.000000 -0.000000 -0.000000 -0.000000 -0.000000 -0.000000 -0.000000 -0.000000 -0.000000 -0.000000 -0.000000 -0.000000 -0.000000 -0.000000 -0.000000 -0.000000 -0.000000 -0.000000 -0.000000 -0.000000 -0.000000 -0.000000 -0.000000 -0.000000 -0.000000 -0.000000 -0.000000 -0.000000 -0.000000 -0.000000 -0.000000 -0.000000 -0.000000 -0.000000 -0.000000 -0.000000 -0.000000 -0.000000 -0.000000 -0.000000 -0.000000 -0.000000 -0.000000 -0.000000 -0.000000 -0.000000 -0.000000 -0.000000 -0.000000 -0.000000 -0.000000 -0.000000 -0.000000 -0.000000 -0.000000 -0.000000 -0.000000 -0.000000 -0.000000 -0.000000 -0.000000 -0.000000 -0.000000 -0.000000 -0.000000 -0.000000 -0.000000 -0.000000 -0.000000 -0.000000 -0.000000 -0.000000 -0.000000 -0.000000 -0.000000 -0.000000 -0.000000 -0.000000 -0.000000 -0.000000 -0.000000 -0.000000 -0.000000 -0.000000 -0.000000 -0.000000 -0.000000 -0.000000 -0.000000 -0.000000 -0.000000 -0.000000 -0.000000 -0.000000 -0.000000 -0.000000 -0.000000 -0.000000 -0.000000 -0.000000 -0.000000 -0.000000 -0.000000 -0.000000 -0.000000 -0.000000 -0.000000 -0.000000 -0.000000 -0.000000 -0.000000 -0.000000 -0.000000 -0.000000 -0.000000 -0.000000 -0.000000 -0.000000 -0.000000 -0.000000 -0.000000 -0.000000 -0.000000 -0.000000 -0.000000 -0.000000 -0.000000 -0.000000 -0.000000 -0.000000 -0.000000 -0.000000 -0.000000 -0.000000 -0.000000 -0.000000 -0.000000 -0.000000 -0.000000 -0.000000 -0.000000 -0.000000 -0.000000 -0.000000 -0.000000 -0.000000 -0.000000 -0.000000 -0.000000 -0.000000 -0.000000 -0.000000 -0.000000 -0.000000 -0.000000 -0.000000 -0.000000 -0.000000 -0.000000 -0.000000 -0.000000 -0.000000 -0.000000 -0.000000 -0.000000 -0.000000 -0.000000 -0.000000 -0.000000 -0.000000 -0.000000 -0.000000 -0.000000 -0.000000 -0.000000 -0.000000 -0.000000 -0.000000 -0.000000 -0.000000 -0.000000 -0.000000 -0.000000 -0.000000 -0.000000 -0.000000 -0.000000 -0.000000 -0.000000 -0.000000 -0.000000 -0.000000 -0.000000 -0.000000 -0.000000 -0.000000 -0.000000 -0.000000 -0.000000 -0.000000 -0.000000 -0.000000 -0.000000 -0.000000 -0.000000 -0.000000 -0.000000 -0.000000 -0.000000 -0.000000 -0.000000 -0.000000 -0.000000 -0.000000 -0.000000 -0.000000 -0.000000 -0.000000 -0.000000 -0.000000 -0.000000 -0.000000 -0.000000 -0.000000 -0.000000 -0.000000 -0.000000 -0.000000 -0.000000 -0.000000 -0.000000 -0.000000 -0.000000 -0.000000 -0.000000 -0.000000 -0.000000 -0.000000 -0.000000 -0.000000 -0.000000 -0.000000 -0.000000 -0.000000 -0.000000 -0.000000 -0.000000 -0.000000 -0.000000 -0.000000 -0.000000 -0.000000 -0.000000 -0.000000 -0.000000 -0.000000 -0.000000 -0.000000 -0.000000 -0.000000 -0.000000 -0.000000 -0.000000 -0.000000 -0.000000 -0.000000 -0.000000 -0.000000 -0.000000 -0.000000 -0.000000 -0.000000 -0.000000 -0.000000 -0.000000 -0.000000 -0.000000 -0.000000 -0.000000 -0.000000 -0.000000 -0.000000 -0.000000 -0.000000 -0.000000 -0.000000 -0.000000 -0.000000 -0.000000 -0.000000 -0.000000 -0.000000 -0.000000 -0.000000 -0.000000 -0.000000 -0.000000 -0.000000 -0.000000 -0.000000 -0.000000 -0.000000 -0.000000 -0.000000 -0.000000 -0.000000 -0.000000 -0.000000 -0.000000 -0.000000 -0.000000 -0.000000 -0.000000 -0.000000 -0.000000 -0.000000 -0.000000 -0.000000 -0.000000 -0.000000 -0.000000 -0.000000 -0.000000 -0.000000 -0.000000 -0.000000 -0.000000 -0.000000 -0.000000 -0.000000 -0.000000 -0.000000 -0.000000 -0.000000 -0.000000 -0.000000 -0.000000 -0.000000 -0.000000 -0.000000 -0.000000 -0.000000 -0.000000 -0.000000 -0.000000 -0.000000 -0.000000 -0.000000 -0.000000 -0.000000 -0.000000 -0.000000 -0.000000 -0.000000 -0.000000 -0.000000 -0.000000 -0.000000 -0.000000 -0.000000 -0.000000 -0.000000 -0.000000 -0.000000 -0.000000 -0.000000 -0.000000 -0.000000 -0.000000 -0.000000 -0.000000 -0.000000 -0.000000 -0.000000 -0.000000 -0.000000 -0.000000 -0.000000 -0.000000 -0.000000 -0.000000 -0.000000 -0.000000 -0.000000 -0.000000 -0.000000 -0.000000 -0.000000 -0.000000 -0.000000 -0.000000 -0.000000 -0.000000 -0.000000 -0.000000 -0.000000 -0.000000 -0.000000 -0.000000 -0.000000 -0.000000 -0.000000 -0.000000 -0.000000 -0.000000 -0.000000 0.000000 -0.000000 -0.000000 -0.000000 -0.000000 -0.000000 -0.000000 -0.000000 -0.000000 -0.000000 -0.000000 -0.000000 -0.000000 -0.000000 -0.000000 -0.000000 -0.000000 -0.000000 -0.000000 -0.000000 -0.000000 -0.000000 -0.000000 -0.000000 -0.000000 -0.000000 -0.000000 -0.000000 -0.000000 -0.000000 -0.000000 -0.000000 -0.000000 -0.000000 -0.000000 -0.000000 -0.000000 -0.000000 -0.000000 -0.000000 -0.000000 -0.000000 -0.000000 -0.000000 -0.000000 -0.000000 -0.000000 -0.000000 -0.000000 -0.000000 -0.000000 -0.000000 -0.000000 -0.000000 -0.000000 -0.000000 -0.000000 -0.000000 -0.000000 -0.000000 -0.000000 -0.000000 -0.000000 -0.000000 -0.000000 -0.000000 -0.000000 -0.000000 -0.000000 -0.000000 -0.000000 -0.000000 -0.000000 -0.000000 -0.000000 -0.000000 -0.000000 -0.000000 -0.000000 -0.000000 -0.000000 -0.000000 -0.000000 -0.000000 -0.000000 -0.000000 -0.000000 -0.000000 -0.000000 -0.000000 -0.000000 -0.000000 -0.000000 -0.000000 -0.000000 -0.000000 -0.000000 -0.000000 -0.000000 -0.000000 -0.000000 -0.000000 -0.000000 -0.000000 -0.000000 -0.000000 -0.000000 -0.000000 -0.000000 -0.000000 -0.000000 -0.000000 -0.000000 -0.000000 -0.000000 -0.000000 -0.000000 -0.000000 -0.000000 -0.000000 -0.000000 -0.000000 -0.000000 -0.000000 -0.000000 -0.000000 -0.000000 -0.000000 -0.000000 -0.000000 -0.000000 -0.000000 -0.000000 -0.000000 -0.000000 -0.000000 -0.000000 -0.000000 -0.000000 -0.000000 -0.000000 -0.000000 -0.000000 -0.000000 -0.000000 -0.000000 -0.000000 -0.000000 -0.000000 -0.000000 -0.000000 -0.000000 -0.000000 -0.000000 -0.000000 -0.000000 -0.000000 -0.000000 -0.000000 -0.000000 -0.000000 -0.000000 -0.000000 -0.000000 -0.000000 -0.000000 -0.000000 -0.000000 -0.000000 -0.000000 -0.000000 -0.000000 -0.000000 -0.000000 -0.000000 -0.000000 -0.000000 -0.000000 -0.000000 -0.000000 -0.000000 -0.000000 -0.000000 -0.000000 -0.000000 -0.000000 -0.000000 -0.000000 -0.000000 -0.000000 -0.000000 -0.000000 -0.000000 -0.000000 -0.000000 -0.000000 -0.000000 -0.000000 -0.000000 -0.000000 -0.000000 -0.000000 -0.000000 -0.000000 -0.000000 -0.000000 -0.000000 -0.000000 -0.000000 -0.000000 -0.000000 -0.000000 -0.000000 -0.000000 -0.000000 -0.000000 -0.000001 -0.000001 -0.000001 -0.000001 -0.000001 -0.000001 -0.000001 -0.000001 -0.000001 -0.000001 -0.000001 -0.000001 -0.000001 -0.000002 -0.000001 -0.000001 -0.000001 -0.000001 -0.000002 -0.000003 -0.000002 -0.000002 -0.000002 -0.000002 -0.000003 -0.000005 -0.000009 -0.000015 -0.000021 -0.000030 -0.000041 -0.000054 -0.000072 -0.000094 -0.000120 -0.000151 -0.000187 -0.000224 -0.000258 -0.000283 -0.000285 -0.000243 -0.000124 0.000120 0.000564 0.001317 0.002535 0.004441 0.007350 0.011701 0.018099 0.027370 0.040637 0.059405 0.085682 0.122124 0.172215 0.240496 0.332842 0.456798 0.621989 0.840607 1.127996 1.503335 1.990438 2.618678 3.424058 4.450413 5.750779 7.388919 9.441011 11.997506 15.165155 19.069205 23.855760 29.694338 36.780618 45.339463 55.628306 67.941171 82.614102 100.034897 120.669769 145.170983 174.987276 216.864053 321.446579 1150.675098 4579.928274 3882.236843 1718.071786 -1882.959739 9229.576827 -1708.265115 9464.186587 20705.192078 16143.132034 21347.400509 30394.014351 23392.859026 22852.844284 27630.390577 26332.875388 27331.610783 26705.225681 20358.277718 19464.205867 17771.036261 17672.845393 17036.571941 21133.003865 19463.211843 19959.226486 23456.038823 24953.451604 23087.382354 26804.254034 26990.183907 25457.544215 25446.996037 25669.916779 25852.452370 23021.714538 22568.906365 23947.892791 22781.700575 19440.145198 18672.630381 18852.950921 18852.950921 18852.950921 -0.000002 -0.000002 -0.000002 -0.000002 -0.000003 -0.000006 -0.000010 -0.000015 -0.000022 -0.000030 -0.000041 -0.000055 -0.000073 -0.000094 -0.000121 -0.000152 -0.000187 -0.000223 -0.000257 -0.000280 -0.000278 -0.000232 -0.000106 0.000149 0.000609 0.001384 0.002634 0.004586 0.007559 0.011998 0.018516 0.027951 0.041437 0.060498 0.087163 0.124114 0.174868 0.244009 0.337459 0.462824 0.629800 0.850666 1.140867 1.519698 2.011109 2.644633 3.456448 4.490591 5.800323 7.449656 9.515040 12.087225 15.273285 19.198813 24.010287 29.877625 36.996945 45.593597 55.925580 68.287622 83.016766 100.502463 121.213277 145.793542 175.517158 215.017938 290.018369 546.336540 1230.326263 2421.489787 3582.071541 3827.551255 4677.761029 4808.753073 6041.658556 7459.584554 8867.037549 11530.876747 13586.552955 13206.066529 13752.006652 14365.521133 15161.272066 15389.459756 14876.032994 13575.751922 12967.798641 13164.959670 14614.507354 14365.126479 16759.966168 16803.979540 18139.630829 20339.241696 21123.797282 20402.113349 22966.490219 23239.128343 21472.001985 21344.376541 22458.940465 22932.087421 21706.703884 20933.562183 21516.416722 19747.191252 17532.241326 17540.759181 17636.517128 17636.517128 17636.517128 -0.000002 -0.000002 -0.000002 -0.000002 -0.000004 -0.000007 -0.000011 -0.000016 -0.000022 -0.000031 -0.000042 -0.000056 -0.000073 -0.000095 -0.000122 -0.000153 -0.000187 -0.000223 -0.000255 -0.000276 -0.000271 -0.000219 -0.000085 0.000182 0.000661 0.001462 0.002750 0.004755 0.007802 0.012343 0.019000 0.028624 0.042365 0.061764 0.088877 0.126415 0.177936 0.248067 0.342790 0.469779 0.638812 0.862267 1.155704 1.538554 2.034923 2.674523 3.493736 4.536830 5.857324 7.519513 9.600162 12.190362 15.397555 19.347732 24.187799 30.088134 37.245359 45.885387 56.266873 68.685386 83.479239 101.040285 121.841930 146.529730 176.251381 213.983586 270.006059 379.416186 628.527597 1137.168148 1938.481058 2810.205704 3571.093749 4210.418774 4870.031867 5633.336263 6393.798832 7271.236675 8096.937884 8628.689912 8972.021998 9322.964969 9690.120109 9995.789529 10261.068820 10507.960017 10841.913614 11336.067527 11956.225050 12522.902015 13167.153239 13736.742557 14400.278593 15140.680321 15739.261719 16281.106142 17134.634314 17728.106429 18016.635551 18462.839057 18955.853106 19186.835342 19089.001924 18844.068762 18637.084037 18017.024730 17386.479494 17035.102516 16961.403950 16961.403950 16961.403950 -0.000002 -0.000002 -0.000002 -0.000002 -0.000004 -0.000007 -0.000011 -0.000016 -0.000022 -0.000031 -0.000042 -0.000056 -0.000073 -0.000095 -0.000122 -0.000153 -0.000187 -0.000223 -0.000255 -0.000275 -0.000270 -0.000217 -0.000081 0.000189 0.000670 0.001477 0.002771 0.004786 0.007846 0.012405 0.019088 0.028746 0.042532 0.061993 0.089186 0.126830 0.178489 0.248798 0.343750 0.471031 0.640435 0.864356 1.158375 1.541947 2.039207 2.679899 3.500442 4.545144 5.867571 7.532070 9.615460 12.208894 15.419882 19.374483 24.219682 30.125940 37.289969 45.937782 56.328154 68.756809 83.562302 101.136980 121.955373 146.664472 176.397254 213.909005 267.600654 362.861974 561.713572 966.318966 1641.890356 2486.444485 3294.864915 3987.014993 4630.786451 5310.090578 6024.372125 6769.155032 7457.569863 7999.419161 8416.920508 8784.931026 9142.993068 9484.566684 9823.634307 10178.885103 10582.533438 11064.321017 11607.857862 12148.347263 12695.260178 13241.214417 13833.149758 14472.709352 15087.206880 15716.176197 16422.455655 17067.788809 17599.892936 18102.914695 18531.052462 18742.287375 18720.759910 18584.112483 18347.884620 17930.818112 17387.693340 16958.319085 16869.017390 16869.017390 16869.017390 -0.000002 -0.000002 -0.000002 -0.000002 -0.000004 -0.000007 -0.000011 -0.000016 -0.000022 -0.000031 -0.000042 -0.000056 -0.000073 -0.000095 -0.000122 -0.000153 -0.000187 -0.000223 -0.000255 -0.000275 -0.000270 -0.000217 -0.000081 0.000189 0.000670 0.001477 0.002771 0.004786 0.007846 0.012405 0.019088 0.028746 0.042532 0.061993 0.089186 0.126830 0.178489 0.248798 0.343750 0.471031 0.640435 0.864356 1.158375 1.541947 2.039207 2.679899 3.500442 4.545144 5.867571 7.532070 9.615460 12.208894 15.419882 19.374483 24.219682 30.125940 37.289969 45.937782 56.328154 68.756809 83.562302 101.136980 121.955373 146.664472 176.397254 213.909005 267.600654 362.861974 561.713572 966.318966 1641.890356 2486.444485 3294.864915 3987.014993 4630.786451 5310.090578 6024.372125 6769.155032 7457.569863 7999.419161 8416.920508 8784.931026 9142.993068 9484.566684 9823.634307 10178.885103 10582.533438 11064.321017 11607.857862 12148.347263 12695.260178 13241.214417 13833.149758 14472.709352 15087.206880 15716.176197 16422.455655 17067.788809 17599.892936 18102.914695 18531.052462 18742.287375 18720.759910 18584.112483 18347.884620 17930.818112 17387.693340 16958.319085 16869.017390 16869.017390 16869.017390 -0.000002 -0.000002 -0.000002 -0.000002 -0.000004 -0.000007 -0.000011 -0.000016 -0.000022 -0.000031 -0.000042 -0.000056 -0.000073 -0.000095 -0.000122 -0.000153 -0.000187 -0.000223 -0.000255 -0.000275 -0.000270 -0.000217 -0.000081 0.000189 0.000670 0.001477 0.002771 0.004786 0.007846 0.012405 0.019088 0.028746 0.042532 0.061993 0.089186 0.126830 0.178489 0.248798 0.343750 0.471031 0.640435 0.864356 1.158375 1.541947 2.039207 2.679899 3.500442 4.545144 5.867571 7.532070 9.615460 12.208894 15.419882 19.374483 24.219682 30.125940 37.289969 45.937782 56.328154 68.756809 83.562302 101.136980 121.955373 146.664472 176.397254 213.909005 267.600654 362.861974 561.713572 966.318966 1641.890356 2486.444485 3294.864915 3987.014993 4630.786451 5310.090578 6024.372125 6769.155032 7457.569863 7999.419161 8416.920508 8784.931026 9142.993068 9484.566684 9823.634307 10178.885103 10582.533438 11064.321017 11607.857862 12148.347263 12695.260178 13241.214417 13833.149758 14472.709352 15087.206880 15716.176197 16422.455655 17067.788809 17599.892936 18102.914695 18531.052462 18742.287375 18720.759910 18584.112483 18347.884620 17930.818112 17387.693340 16958.319085 16869.017390 16869.017390 16869.017390 -1348.060835 -1472.914386 -1674.121748 -2007.454075 -2546.356714 -1737.702298 -139.551618 -636.400454 -1674.056157 -817.894732 856.129093 384.601157 -468.502872 -1387.135682 -982.760550 1159.297755 884.451540 -481.772926 -1743.541190 -518.540093 1635.577431 439.138166 -1522.729678 -1636.580038 1730.065429 1793.496651 139.053636 -1311.639000 -2073.414827 1062.034508 2336.203063 864.766417 -271.696958 -1896.702080 -1213.498693 3077.582158 3657.402061 3563.285187 4397.861625 4451.712968 3881.453597 6006.798181 6955.968743 7268.059403 8390.700780 8759.922596 8955.368488 9906.020080 9652.012687 9769.098824 10174.826930 10371.179549 10580.324806 10563.345114 10563.345114 10563.345114 -1705.743246 -377.043608 -123.950118 11663.994366 11005.409432 9760.962202 10716.527479 9958.391097 10471.396794 10377.242370 11211.600691 13814.517437 12464.604266 12187.975255 10396.884229 11345.211455 11330.963716 10813.165414 12507.782493 12001.761208 10907.298615 11611.783254 9476.542487 10299.421323 10656.463577 9204.219122 12760.096033 9624.954254 9148.488433 12292.464527 10427.157266 11950.109633 14205.367826 11577.977362 12892.316240 11543.958188 11892.191160 10600.575458 11955.044968 11803.919593 10623.965937 11553.994237 10375.902205 12262.359351 12154.336317 11556.907652 9907.444171 12201.697368 10349.176267 12344.871362 13291.305861 9913.207542 10423.579540 10494.545163 10494.545163 10494.545163 123.015107 94.564688 7375.180393 3463.546669 6978.422861 11019.125489 11180.891341 10655.423130 11792.246459 11183.724173 9697.282065 11986.487573 13101.857528 10631.480687 10184.252306 10104.873465 6152.055071 12734.430322 11869.571355 11380.201368 10446.192456 10766.032807 11065.151908 9308.951881 8593.853629 8805.832947 10059.176207 9828.813249 10362.516669 9412.660721 6191.688549 8350.816450 10514.179738 9129.777152 12132.146837 9175.423290 7568.267238 7248.543607 8797.344930 10392.051815 6636.713580 9102.694996 7221.623271 12575.382984 7739.434484 10751.930608 9734.471158 12384.868061 8098.595747 13724.366411 12772.991957 11516.948735 10452.032316 10350.256169 10350.256169 10350.256169 -199.277205 -941.575968 12172.081168 9953.579670 11257.978094 9918.607025 11453.804238 11331.088635 8561.252127 12364.189673 10993.802624 12277.383078 12030.600909 8731.459985 10155.115248 14259.441771 12036.842279 11800.590356 11595.942079 11936.828616 13163.293224 10433.556502 7996.418330 11162.147358 11394.265555 10355.701804 13099.447624 9317.644903 13166.403481 11297.901941 10401.988261 10575.136750 10234.573739 10333.167942 10524.736790 8385.963745 11571.519857 8047.640514 10107.407252 7029.016253 7798.461274 7948.774411 7340.943596 11939.202676 7500.307466 12140.103016 14326.964727 9629.528387 10323.727538 13136.263155 12277.144808 12897.810687 10687.112944 10267.789834 10267.789834 10267.789834 801.786097 3091.654542 3061.880474 5762.601252 6008.047272 11771.952