<VTKFile type="PolyData">
<PolyData>
<Piece NumberOfPoints="8632" NumberOfVerts="8632" NumberOfLines="0" NumberOfStrips="0" NumberOfPolys="0">
<PointData>
<DataArray type="Float64" Name="Pressure" format="ascii">
 -0.484948 -0.484948 -0.484948 -0.496091 -0.621776 -0.950865 -1.335749 -1.794606 -2.336822 -2.975802 -3.730107 -4.622403 -5.678941 -6.929510 -8.407639 -10.150909 -12.201280 -14.605443 -17.415141 -20.687488 -24.485243 -28.877054 -33.937647 -39.747967 -46.395235 -53.972941 -62.580733 -72.324204 -83.314564 -95.668179 -109.505964 -124.952628 -142.135754 -161.184717 -182.229445 -205.399028 -230.820217 -258.615849 -288.903265 -321.792815 -357.386563 -395.777331 -437.048237 -481.272865 -528.516187 -578.836216 -632.286186 -688.916612 -748.775711 -811.904773 -878.320829 -947.968968 -1020.603416 -1095.511583 -1170.932284 -1243.444502 -1308.164735 -1358.236757 -1380.884268 -1351.885557 -1240.867529 -1061.766923 -897.829236 -777.260900 -641.441310 -472.257276 -348.925517 -310.325272 -307.062871 -272.832298 -184.458347 -106.033975 -100.963881 -133.606965 -129.091561 -62.039384 -0.550365 1.184930 -5.729533 58.962385 206.727194 366.468394 486.684453 547.808072 598.922986 870.587701 1527.829141 2384.208557 3155.342042 3770.256033 4301.340801 4825.390477 5363.612917 5890.529394 6383.862129 6857.610443 7342.064206 7850.413557 8373.334706 8872.250606 9324.299914 9742.504459 10129.626846 10453.900358 10683.874907 10819.184694 10880.039012 10897.905075 10900.253967 10900.253967 10900.253967 -0.484948 -0.484948 -0.484948 -0.496091 -0.621776 -0.950865 -1.335749 -1.794606 -2.336822 -2.975802 -3.730107 -4.622403 -5.678941 -6.929510 -8.407639 -10.150909 -12.201280 -14.605443 -17.415141 -20.687488 -24.485243 -28.877054 -33.937647 -39.747967 -46.395235 -53.972941 -62.580733 -72.324204 -83.314564 -95.668179 -109.505964 -124.952628 -142.135754 -161.184717 -182.229445 -205.399028 -230.820217 -258.615849 -288.903265 -321.792815 -357.386563 -395.777331 -437.048237 -481.272865 -528.516187 -578.836216 -632.286186 -688.916612 -748.775711 -811.904773 -878.320829 -947.968968 -1020.603416 -1095.511583 -1170.932284 -1243.444502 -1308.164735 -1358.236757 -1380.884268 -1351.885557 -1240.867529 -1061.766923 -897.829236 -777.260900 -641.441310 -472.257276 -348.925517 -310.325272 -307.062871 -272.832298 -184.458347 -106.033975 -100.963881 -133.606965 -129.091561 -62.039384 -0.550365 1.184930 -5.729533 58.962385 206.727194 366.468394 486.684453 547.808072 598.922986 870.587701 1527.829141 2384.208557 3155.342042 3770.256033 4301.340801 4825.390477 5363.612917 5890.529394 6383.862129 6857.610443 7342.064206 7850.413557 8373.334706 8872.250606 9324.299914 9742.504459 10129.626846 10453.900358 10683.874907 10819.184694 10880.039012 10897.905075 10900.253967 10900.253967 10900.253967 -0.484948 -0.484948 -0.484948 -0.496091 -0.621776 -0.950865 -1.335749 -1.794606 -2.336822 -2.975802 -3.730107 -4.622403 -5.678941 -6.929510 -8.407639 -10.150909 -12.201280 -14.605443 -17.415141 -20.687488 -24.485243 -28.877054 -33.937647 -39.747967 -46.395235 -53.972941 -62.580733 -72.324204 -83.314564 -95.668179 -109.505964 -124.952628 -142.135754 -161.184717 -182.229445 -205.399028 -230.820217 -258.615849 -288.903265 -321.792815 -357.386563 -395.777331 -437.048237 -481.272865 -528.516187 -578.836216 -632.286186 -688.916612 -748.775711 -811.904773 -878.320829 -947.968968 -1020.603416 -1095.511583 -1170.932284 -1243.444502 -1308.164735 -1358.236757 -1380.884268 -1351.885557 -1240.867529 -1061.766923 -897.829236 -777.260900 -641.441310 -472.257276 -348.925517 -310.325272 -307.062871 -272.832298 -184.458347 -106.033975 -100.963881 -133.606965 -129.091561 -62.039384 -0.550365 1.184930 -5.729533 58.962385 206.727194 366.468394 486.684453 547.808072 598.922986 870.587701 1527.829141 2384.208557 3155.342042 3770.256033 4301.340801 4825.390477 5363.612917 5890.529394 6383.862129 6857.610443 7342.064206 7850.413557 8373.334706 8872.250606 9324.299914 9742.504459 10129.626846 10453.900358 10683.874907 10819.184694 10880.039012 10897.905075 10900.253967 10900.253967 10900.253967 -0.481707 -0.481707 -0.481707 -0.492611 -0.617205 -0.943805 -1.329121 -1.790220 -2.334044 -2.973608 -3.727943 -4.620008 -5.676180 -6.926296 -8.403904 -10.146585 -12.196299 -14.599732 -17.408623 -20.680084 -24.476868 -28.867622 -33.927069 -39.736153 -46.382097 -53.958390 -62.564683 -72.306574 -83.295279 -95.647172 -109.483179 -124.928020 -142.109295 -161.156396 -182.199269 -205.367025 -230.786438 -258.580367 -288.866175 -321.754231 -357.346613 -395.736155 -437.005982 -481.229691 -528.472289 -578.791908 -632.242133 -688.874426 -748.739455 -811.884743 -878.342940 -948.097664 -1020.994559 -1096.517462 -1173.099060 -1247.302259 -1314.276439 -1368.590780 -1399.126713 -1379.931545 -1280.080994 -1078.961115 -881.879371 -780.727354 -657.213028 -449.280405 -316.513483 -297.080122 -317.808892 -292.975915 -181.575493 -78.408423 -87.156508 -146.847381 -153.022224 -60.955483 21.501428 5.709290 -29.178888 35.087550 220.992737 409.842314 531.093341 536.353501 430.747029 653.165155 1489.438909 2526.596404 3334.041785 3923.422263 4430.296696 4965.443381 5527.547577 6062.035983 6532.924546 6979.138604 7450.932584 7952.589105 8480.505749 8971.461655 9399.969542 9798.551703 10182.618400 10505.790629 10723.812390 10848.256643 10907.022206 10928.405961 10933.470605 10933.470605 10933.470605 -0.446843 -0.446843 -0.446843 -0.455396 -0.561837 -0.849465 -1.243523 -1.743798 -2.306105 -2.951797 -3.706394 -4.596109 -5.648609 -6.894204 -8.366596 -10.103392 -12.146534 -14.542670 -17.343502 -20.606099 -24.393183 -28.773371 -33.821367 -39.618103 -46.250801 -53.812965 -62.404274 -72.130367 -83.102525 -95.437202 -109.255428 -124.682050 -141.844815 -160.873289 -181.897609 -205.047097 -230.448749 -258.225648 -288.495372 -321.368480 -356.947208 -395.324494 -436.583537 -480.798041 -528.033362 -578.348781 -631.801257 -688.451403 -748.373684 -811.676141 -878.543591 -949.338914 -1024.839430 -1106.658924 -1197.978895 -1292.540452 -1381.747114 -1481.306513 -1602.972039 -1760.061627 -1912.067967 -1248.315569 -644.714131 -874.595769 -976.867582 -161.895160 205.766962 -145.013679 -460.755109 -685.689887 -165.097848 425.985425 103.498671 -328.442932 -602.291022 -40.846335 466.772645 75.555594 -363.448138 -404.847457 442.254567 1078.508804 1383.928597 662.435844 -1973.923300 -2402.121022 1283.064434 4632.166063 5289.562689 5348.484958 5663.420701 6483.950263 7495.030086 8151.790337 8275.189445 8312.655443 8692.729708 9156.802666 9830.881018 10256.841354 10345.873761 10469.660786 10827.502988 11166.464853 11172.523186 11122.113771 11157.410538 11261.147705 11287.683942 11287.683942 11287.683942 -0.398268 -0.398268 -0.398268 -0.404844 -0.480784 -0.683278 -1.057449 -1.665122 -2.267812 -2.924804 -3.681135 -4.568703 -5.617231 -6.857771 -8.324270 -10.054397 -12.090080 -14.477932 -17.269608 -20.522137 -24.298199 -28.666380 -33.701361 -39.484060 -46.101701 -53.647801 -62.222069 -71.930196 -82.883531 -95.198622 -108.996615 -124.402502 -141.544199 -160.551466 -181.554663 -204.683350 -230.064776 -257.822282 -288.073693 -320.929794 -356.493002 -394.856399 -436.103303 -480.307628 -527.535347 -577.847598 -631.306546 -687.986670 -747.998193 -811.539924 -879.025678 -951.397222 -1030.916614 -1123.241482 -1243.395278 -1359.211639 -1463.615555 -1613.782786 -1846.346127 -2259.380049 -2472.493882 -890.895476 -40.319187 -1034.136738 -1515.163087 175.119669 978.237417 77.006951 -708.022326 -1419.813236 -228.326941 1275.752313 441.240757 -678.545462 -1572.211247 -22.835453 1470.274460 288.368507 -1108.459019 -1641.380636 1007.773426 2539.228459 5413.695281 6523.128744 -7638.229969 -7944.692332 5509.973907 7383.917559 4977.257050 6511.497402 6195.389337 9101.977894 10994.752857 12754.116716 10787.608028 9590.036131 10781.300895 10203.251326 12219.382836 12238.530375 12081.720806 11474.999352 12225.385453 13048.684986 12456.403648 11920.965899 11618.186300 11706.980843 11761.650159 11761.650159 11761.650159 -0.391577 -0.391577 -0.391577 -0.397868 -0.469876 -0.657257 -0.346525 -0.346525 -0.346525 -0.350600 -0.396963 -0.498479 -0.279250 -0.279250 -0.279250 -0.281054 -0.300176 -0.332605 -0.221349 -0.221349 -0.221349 -0.222027 -0.228729 -0.239780 -0.173679 -0.173679 -0.173679 -0.173874 -0.175744 -0.179101 -0.135317 -0.135317 -0.135317 -0.135333 -0.135459 -0.136072 -0.104855 -0.104855 -0.104855 -0.104814 -0.104386 -0.104083 -0.080873 -0.080873 -0.080873 -0.080819 -0.080276 -0.079733 -0.062110 -0.062110 -0.062110 -0.062059 -0.061552 -0.061006 -0.047505 -0.047505 -0.047505 -0.047462 -0.047033 -0.046558 -0.036189 -0.036189 -0.036189 -0.036154 -0.035806 -0.035417 -0.027460 -0.027460 -0.027460 -0.027433 -0.027156 -0.026846 -0.020755 -0.020755 -0.020755 -0.020733 -0.020516 -0.020273 -0.015625 -0.015625 -0.015625 -0.015608 -0.015440 -0.015250 -0.011717 -0.011717 -0.011717 -0.011704 -0.011574 -0.011427 -0.008752 -0.008752 -0.008752 -0.008742 -0.008642 -0.008530 -0.006512 -0.006512 -0.006512 -0.006504 -0.006428 -0.006342 -0.004826 -0.004826 -0.004826 -0.004820 -0.004762 -0.004696 -0.003563 -0.003563 -0.003563 -0.003558 -0.003514 -0.003464 -0.002620 -0.002620 -0.002620 -0.002616 -0.002583 -0.002545 -0.001919 -0.001919 -0.001919 -0.001916 -0.001891 -0.001863 -0.001400 -0.001400 -0.001400 -0.001398 -0.001379 -0.001358 -0.001017 -0.001017 -0.001017 -0.001016 -0.001002 -0.000986 -0.000736 -0.000736 -0.000736 -0.000735 -0.000725 -0.000713 -0.000531 -0.000531 -0.000531 -0.000530 -0.000522 -0.000514 -0.000381 -0.000381 -0.000381 -0.000381 -0.000375 -0.000369 -0.000273 -0.000273 -0.000273 -0.000272 -0.000268 -0.000264 -0.000194 -0.000194 -0.000194 -0.000194 -0.000191 -0.000188 -0.000138 -0.000138 -0.000138 -0.000138 -0.000135 -0.000133 -0.000097 -0.000097 -0.000097 -0.000097 -0.000096 -0.000094 -0.000069 -0.000069 -0.000069 -0.000069 -0.000067 -0.000066 -0.000048 -0.000048 -0.000048 -0.000048 -0.000047 -0.000046 -0.000034 -0.000034 -0.000034 -0.000034 -0.000033 -0.000032 -0.000023 -0.000023 -0.000023 -0.000023 -0.000023 -0.000022 -0.000016 -0.000016 -0.000016 -0.000016 -0.000016 -0.000016 -0.000011 -0.000011 -0.000011 -0.000011 -0.000011 -0.000011 -0.000008 -0.000008 -0.000008 -0.000008 -0.000008 -0.000007 -0.000005 -0.000005 -0.000005 -0.000005 -0.000005 -0.000005 -0.000004 -0.000004 -0.000004 -0.000004 -0.000004 -0.000003 -0.000002 -0.000002 -0.000002 -0.000002 -0.000002 -0.000002 -0.000002 -0.000002 -0.000002 -0.000002 -0.000002 -0.000002 -0.000001 -0.000001 -0.000001 -0.000001 -0.000001 -0.000001 -0.000001 -0.000001 -0.000001 -0.000001 -0.000001 -0.000001 -0.000001 -0.000001 -0.000001 -0.000001 -0.000000 -0.000000 -0.000000 -0.000000 -0.000000 -0.000000 -0.000000 -0.000000 -0.000000 -0.000000 -0.000000 -0.000000 -0.000000 -0.000000 -0.000000 -0.000000 -0.000000 -0.000000 -0.000000 -0.000000 -0.000000 -0.000000 -0.000000 -0.000000 -0.000000 -0.000000 -0.000000 -0.000000 -0.000000 -0.000000 -0.000000 -0.000000 -0.000000 -0.000000 -0.000000 -0.000000 -0.000000 -0.000000 -0.000000 -0.000000 -0.000000 -0.000000 -0.000000 -0.000000 -0.000000 -0.000000 -0.000000 -0.000000 -0.000000 -0.000000 -0.000000 -0.000000 -0.000000 -0.000000 -0.000000 -0.000000 -0.000000 -0.000000 -0.000000 -0.000000 -0.000000 -0.000000 -0.000000 -0.000000 -0.000000 -0.000000 -0.000000 -0.000000 -0.000000 -0.000000 -0.000000 -0.000000 -0.000000 -0.000000 -0.000000 -0.000000 -0.000000 -0.000000 -0.000000 -0.000000 -0.000000 -0.000000 -0.000000 -0.000000 -0.000000 -0.000000 -0.000000 -0.000000 -0.000000 -0.000000 -0.000000 -0.000000 -0.000000 -0.000000 -0.000000 -0.000000 -0.000000 -0.000000 -0.000000 -0.000000 -0.000000 -0.000000 -0.000000 -0.000000 -0.000000 -0.000000 -0.000000 -0.000000 -0.000000 -0.000000 -0.000000 -0.000000 -0.000000 -0.000000 -0.000000 -0.000000 -0.000000 -0.000000 -0.000000 -0.000000 -0.000000 -0.000000 -0.000000 -0.000000 -0.000000 -0.000000 -0.000000 -0.000000 -0.000000 -0.000000 -0.000000 -0.000000 -0.000000 -0.000000 -0.000000 -0.000000 -0.000000 -0.000000 -0.000000 -0.000000 -0.000000 -0.000000 -0.000000 -0.000000 -0.000000 -0.000000 -0.000000 -0.000000 -0.000000 -0.000000 -0.000000 -0.000000 -0.000000 -0.000000 -0.000000 -0.000000 -0.000000 -0.000000 -0.000000 -0.000000 -0.000000 -0.000000 -0.000000 -0.000000 -0.000000 -0.000000 -0.000000 -0.000000 -0.000000 -0.000000 -0.000000 -0.000000 -0.000000 -0.000000 -0.000000 -0.000000 -0.000000 -0.000000 -0.000000 -0.000000 -0.000000 -0.000000 -0.000000 -0.000000 -0.000000 -0.000000 -0.000000 -0.000000 -0.000000 -0.000000 -0.000000 -0.000000 -0.000000 -0.000000 -0.000000 -0.000000 -0.000000 -0.000000 -0.000000 -0.000000 -0.000000 -0.000000 -0.000000 -0.000000 -0.000000 -0.000000 -0.000000 -0.000000 -0.000000 -0.000000 -0.000000 -0.000000 -0.000000 -0.000000 -0.000000 -0.000000 -0.000000 -0.000000 -0.000000 -0.000000 -0.000000 -0.000000 -0.000000 -0.000000 -0.000000 -0.000000 -0.000000 -0.000000 -0.000000 -0.000000 -0.000000 -0.000000 -0.000000 -0.000000 -0.000000 -0.000000 -0.000000 -0.000000 -0.000000 -0.000000 -0.000000 -0.000000 -0.000000 -0.000000 -0.000000 -0.000000 -0.000000 -0.000000 -0.000000 -0.000000 -0.000000 -0.000000 -0.000000 -0.000000 -0.000000 -0.000000 -0.000000 -0.000000 -0.000000 -0.000000 -0.000000 -0.000000 -0.000000 -0.000000 -0.000000 -0.000000 -0.000000 -0.000000 -0.000000 -0.000000 -0.000000 -0.000000 -0.000000 -0.000000 -0.000000 -0.000000 -0.000000 -0.000000 -0.000000 -0.000000 -0.000000 -0.000000 -0.000000 -0.000000 -0.000000 -0.000000 -0.000000 -0.000000 -0.000000 -0.000000 -0.000000 -0.000000 -0.000000 -0.000000 -0.000000 -0.000000 -0.000000 -0.000000 -0.000000 -0.000000 -0.000000 -0.000000 -0.000000 -0.000000 -0.000000 -0.000000 -0.000000 -0.000000 -0.000000 -0.000000 -0.000000 -0.000000 -0.000000 -0.000000 -0.000000 -0.000000 -0.000000 -0.000000 -0.000000 -0.000000 -0.000000 -0.000000 -0.000000 -0.000000 -0.000000 -0.000000 -0.000000 -0.000000 -0.000000 -0.000000 -0.000000 -0.000000 -0.000000 -0.000000 -0.000000 -0.000000 -0.000000 -0.000000 -0.000000 -0.000000 -0.000000 -0.000000 -0.000000 -0.000000 -0.000000 -0.000000 -0.000000 -0.000000 -0.000000 -0.000000 -0.000000 -0.000000 -0.000000 -0.000000 -0.000000 -0.000000 -0.000000 -0.000000 -0.000000 -0.000000 -0.000000 -0.000000 -0.000000 -0.000000 -0.000000 -0.000000 -0.000000 -0.000000 -0.000000 -0.000000 -0.000000 -0.000000 -0.000000 -0.000000 -0.000000 -0.000000 -0.000000 -0.000000 -0.000000 -0.000000 -0.000000 -0.000000 -0.000000 -0.000000 -0.000000 -0.000000 -0.000000 -0.000000 -0.000000 -0.000000 -0.000000 -0.000000 -0.000000 -0.000000 -0.000000 -0.000000 -0.000000 -0.000000 -0.000000 -0.000000 -0.000000 -0.000000 -0.000000 -0.000000 -0.000000 -0.000000 -0.000000 -0.000000 -0.000000 -0.000000 -0.000000 -0.000000 -0.000000 -0.000000 -0.000000 -0.000000 -0.000000 -0.000000 -0.000000 -0.000000 -0.000000 -0.000000 -0.000000 -0.000000 -0.000000 -0.000000 -0.000000 -0.000000 -0.000000 -0.000000 -0.000000 -0.000000 -0.000000 -0.000000 -0.000000 -0.000000 -0.000000 -0.000000 -0.000000 -0.000000 -0.000000 -0.000000 -0.000000 -0.000000 -0.000000 -0.000000 -0.000000 -0.000000 -0.000000 -0.000000 -0.000000 -0.000000 -0.000000 -0.000000 -0.000000 -0.000000 -0.000000 -0.000000 -0.000000 -0.000000 -0.000000 -0.000000 -0.000000 -0.000000 -0.000000 -0.000000 -0.000000 -0.000000 -0.000000 -0.000000 -0.000000 -0.000000 -0.000000 -0.000000 -0.000000 -0.000000 -0.000000 -0.000000 -0.000000 -0.000000 -0.000000 -0.000000 -0.000000 -0.000000 -0.000000 -0.000000 -0.000000 -0.000000 -0.000000 -0.000000 -0.000000 -0.000000 -0.000000 -0.000000 -0.000000 -0.000000 -0.000000 -0.000000 -0.000000 -0.000000 -0.000000 -0.000000 -0.000000 -0.000000 -0.000000 -0.000000 -0.000000 -0.000000 -0.000000 -0.000000 -0.000000 -0.000000 -0.000000 -0.000000 -0.000000 -0.000000 -0.000000 -0.000000 -0.000000 -0.000000 -0.000000 -0.000000 -0.000000 -0.000000 -0.000000 -0.000000 -0.000000 -0.000000 -0.000000 -0.000000 -0.000000 -0.000000 -0.000000 -0.000000 -0.000000 -0.000000 -0.000000 -0.000000 -0.000000 -0.000000 -0.000000 -0.000000 -0.000000 -0.000000 -0.000000 -0.000000 -0.000000 -0.000000 -0.000000 -0.000000 -0.000000 -0.000000 -0.000000 -0.000000 -0.000000 -0.000000 -0.000000 -0.000000 -0.000000 -0.000000 -0.000000 -0.000000 -0.000000 -0.000000 -0.000000 -0.000000 -0.000000 -0.000000 -0.000000 -0.000000 -0.000000 -0.000000 -0.000000 -0.000000 -0.000000 -0.000000 -0.000000 -0.000000 -0.000000 -0.000000 -0.000000 -0.000000 -0.000000 -0.000000 -0.000000 -0.000000 -0.000000 -0.000000 -0.000000 -0.000000 -0.000000 -0.000000 -0.000000 -0.000000 -0.000000 -0.000000 -0.000000 -0.000000 -0.000000 -0.000000 -0.000000 -0.000000 -0.000000 -0.000000 -0.000000 -0.000000 -0.000000 -0.000000 -0.000000 -0.000000 -0.000000 -0.000000 -0.000000 -0.000000 -0.000000 -0.000000 -0.000000 -0.000000 -0.000000 -0.000000 -0.000000 -0.000000 -0.000000 -0.000000 -0.000000 -0.000000 -0.000000 -0.000000 -0.000000 -0.000000 -0.000000 -0.000000 -0.000000 -0.000000 -0.000000 -0.000000 -0.000000 -0.000000 -0.000000 -0.000000 -0.000000 -0.000000 -0.000000 -0.000000 -0.000000 -0.000000 -0.000000 -0.000000 -0.000000 -0.000000 -0.000000 -0.000000 -0.000000 -0.000000 -0.000000 -0.000000 -0.000000 -0.000000 -0.000000 -0.000000 -0.000000 -0.000000 -0.000000 -0.000000 -0.000000 -0.000000 -0.000000 -0.000000 -0.000000 -0.000000 -0.000000 -0.000000 -0.000000 -0.000000 -0.000000 -0.000000 -0.000000 -0.000000 -0.000000 -0.000000 -0.000000 -0.000000 -0.000000 -0.000000 -0.000000 -0.000000 -0.000000 -0.000000 -0.000000 -0.000000 -0.000000 -0.000000 -0.000000 -0.000000 -0.000000 -0.000000 -0.000000 -0.000000 -0.000000 -0.000000 -0.000000 -0.000000 -0.000000 -0.000000 -0.000000 -0.000000 -0.000000 -0.000000 -0.000000 -0.000000 -0.000000 -0.000000 -0.000000 -0.000000 -0.000000 -0.000000 -0.000000 -0.000000 -0.000000 -0.000000 -0.000000 -0.000000 -0.000000 -0.000000 -0.000000 -0.000000 -0.000000 -0.000000 -0.000000 -0.000000 -0.000000 -0.000000 -0.000000 -0.000000 -0.000000 -0.000000 -0.000000 -0.000000 -0.000000 -0.000000 -0.000000 -0.000000 -0.000000 -0.000000 -0.000000 -0.000000 -0.000000 -0.000000 -0.000000 -0.000000 -0.000000 -0.000000 -0.000000 -0.000000 -0.000000 -0.000000 -0.000000 -0.000000 -0.000000 -0.000000 -0.000000 -0.000000 -0.000000 -0.000000 -0.000000 -0.000000 -0.000000 -0.000000 -0.000000 -0.000000 -0.000000 -0.000000 -0.000000 -0.000000 -0.000000 -0.000000 -0.000000 -0.000000 -0.000000 -0.000000 -0.000000 -0.000000 -0.000000 -0.000000 -0.000000 -0.000000 -0.000000 -0.000000 -0.000000 -0.000000 -0.000000 -0.000000 -0.000000 -0.000000 -0.000000 -0.000000 -0.000000 -0.000000 -0.000000 -0.000000 -0.000000 -0.000000 -0.000000 -0.000000 -0.000000 -0.000000 -0.000000 -0.000000 -0.000000 -0.000000 -0.000000 -0.000000 -0.000000 -0.000000 -0.000000 -0.000000 -0.000000 -0.000000 -0.000000 -0.000000 -0.000000 -0.000000 -0.000000 -0.000000 -0.000000 -0.000000 -0.000000 -0.000000 -0.000000 -0.000000 -0.000000 -0.000000 -0.000000 -0.000000 -0.000000 -0.000000 -0.000000 -0.000000 -0.000000 -0.000000 -0.000000 -0.000000 -0.000000 -0.000000 -0.000000 -0.000000 -0.000000 -0.000000 -0.000000 -0.000000 -0.000000 -0.000000 -0.000000 -0.000000 -0.000000 -0.000000 -0.000000 -0.000000 -0.000000 -0.000000 -0.000000 -0.000000 -0.000000 -0.000000 -0.000000 -0.000000 -0.000000 -0.000000 -0.000000 -0.000000 -0.000000 -0.000000 -0.000000 -0.000000 -0.000000 -0.000000 -0.000000 -0.000000 -0.000000 -0.000000 -0.000000 -0.000000 -0.000000 -0.000000 -0.000000 -0.000000 -0.000000 -0.000000 -0.000000 -0.000000 -0.000001 -0.000001 -0.000001 -0.000001 -0.000001 -0.000001 -0.000001 -0.000001 -0.000001 -0.000001 -0.000001 -0.000001 -0.000001 -0.000001 -0.000001 -0.000001 -0.000001 -0.000001 -0.000002 -0.000002 -0.000002 -0.000002 -0.000002 -0.000002 -0.000002 -0.000002 -0.000002 -0.000002 -0.000002 -0.000003 -0.000003 -0.000003 -0.000003 -0.000003 -0.000003 -0.000004 -0.000004 -0.000004 -0.000004 -0.000004 -0.000005 -0.000006 -0.000005 -0.000005 -0.000005 -0.000006 -0.000007 -0.000010 -0.000007 -0.000007 -0.000007 -0.000007 -0.000009 -0.000014 -0.000023 -0.000033 -0.000041 -0.000049 -0.000054 -0.000055 -0.000046 -0.000021 0.000030 0.000121 0.000276 0.000526 0.000919 0.001518 0.002416 0.003742 0.005669 0.008439 0.012377 0.017921 0.025656 0.036357 0.051050 0.071073 0.098170 0.134598 0.183258 0.247859 0.333124 0.445047 0.591249 0.781523 1.028832 1.351465 1.778420 2.364130 3.232431 4.721584 7.930354 17.078116 50.688407 196.288889 1127.093025 2484.708108 -1190.250466 1850.186082 9507.296019 -2274.968852 -8938.942736 -651.408275 -1269.085804 -921.292041 11835.376406 13387.727605 6852.275015 0.455944 1422.858246 -2598.678016 4253.819891 10532.257262 -1535.386877 4717.113328 7215.399217 12296.297345 8809.931758 986.919056 4859.219466 2602.857427 5516.713674 9769.066912 7766.111508 6113.997917 9121.631858 9888.953211 13775.937878 15882.732186 15787.570235 12033.343728 17497.454951 12827.684212 10165.797560 10893.194621 11264.513000 11936.644492 9839.544460 12060.558622 13675.488698 12906.328741 14491.381761 13821.654521 14619.290678 15985.141974 17376.554520 18591.862905 18907.115786 19927.009491 22508.525608 21584.160260 21378.501134 21979.059046 21320.573236 21350.432982 21681.006563 21681.006563 21681.006563 -0.000008 -0.000008 -0.000008 -0.000008 -0.000011 -0.000017 -0.000025 -0.000033 -0.000042 -0.000049 -0.000054 -0.000053 -0.000043 -0.000017 0.000036 0.000130 0.000290 0.000547 0.000949 0.001561 0.002478 0.003829 0.005792 0.008609 0.012611 0.018240 0.026088 0.036939 0.051827 0.072105 0.099532 0.136385 0.185587 0.250879 0.337020 0.450055 0.597680 0.789815 1.039680 1.366131 1.799433 2.396593 3.284571 4.790399 7.873070 15.728951 40.218133 125.627827 403.182259 753.985805 716.707983 997.706302 1854.684732 932.545055 -1157.882234 -1363.329385 -353.224115 1043.229149 3286.437014 3261.898397 2592.721974 1792.491738 1373.819865 1839.280051 3491.368791 5762.299655 4348.806500 6313.968448 7817.572753 10274.327285 10029.697660 7174.143098 6978.911505 7531.889646 8436.684903 9394.938097 9301.002263 9316.596666 10087.896334 10578.752842 11943.416471 13047.737993 13325.387153 12955.361482 14236.273653 13502.041763 12737.510303 12928.801666 13481.268415 13402.179271 12725.500660 14514.974459 14819.197894 14829.287551 15972.317790 15694.509368 16416.416429 17798.318899 17939.866630 18945.266798 19080.574244 19684.008792 21224.184217 21964.695554 21826.448428 21146.201642 20291.908746 20760.830237 20979.454885 20979.454885 20979.454885 -0.000009 -0.000009 -0.000009 -0.000009 -0.000012 -0.000018 -0.000026 -0.000034 -0.000042 -0.000049 -0.000053 -0.000052 -0.000041 -0.000013 0.000042 0.000141 0.000306 0.000571 0.000983 0.001612 0.002550 0.003931 0.005934 0.008806 0.012881 0.018609 0.026588 0.037612 0.052726 0.073298 0.101106 0.138448 0.188276 0.254365 0.341517 0.455836 0.605108 0.799412 1.052293 1.383348 1.824562 2.436717 3.353138 4.898533 7.918638 14.709062 31.531415 74.034700 167.510308 314.396371 470.023402 673.551401 937.692163 996.446190 765.030411 620.666222 776.801937 1255.552363 1940.796883 2421.333708 2551.855878 2782.839714 3132.990211 3625.763070 4294.237118 5039.324155 5573.742332 6171.639357 6946.586452 7727.409703 8113.318888 8218.117980 8540.785865 9072.192292 9656.637779 10158.610762 10582.068124 11066.367123 11588.783949 12035.633939 12457.493172 12829.139698 13102.982115 13372.005592 13781.862104 14150.551376 14495.176606 14944.866858 15465.657641 15944.634410 16406.608538 17031.324749 17625.387968 18254.653603 18918.681522 19477.530714 19955.052230 20538.438458 20879.870385 21292.385008 21447.030555 21652.369430 21769.766882 21722.078182 21440.517980 21087.790800 20762.634496 20619.629563 20597.069809 20597.069809 20597.069809 -0.000009 -0.000009 -0.000009 -0.000009 -0.000012 -0.000019 -0.000026 -0.000034 -0.000042 -0.000049 -0.000053 -0.000052 -0.000040 -0.000012 0.000044 0.000143 0.000309 0.000575 0.000990 0.001621 0.002563 0.003949 0.005959 0.008841 0.012930 0.018676 0.026678 0.037733 0.052888 0.073513 0.101389 0.138819 0.188760 0.254992 0.342326 0.456877 0.606446 0.801143 1.054575 1.386482 1.829189 2.444249 3.366451 4.921308 7.939628 14.584072 30.312434 67.172201 143.190891 267.232596 429.448714 628.870563 849.662970 982.876692 950.614205 879.181790 969.073031 1316.418801 1854.779533 2350.329669 2678.128652 3001.932981 3395.237992 3866.068650 4419.866427 5022.407633 5577.639587 6141.066993 6769.975935 7405.125935 7890.817562 8260.846303 8706.228175 9240.708364 9776.627682 10269.015181 10754.386939 11280.427223 11795.971093 12224.664053 12580.563024 12887.930186 13162.772063 13465.961601 13856.131057 14274.768332 14703.100253 15181.126466 15705.990972 16231.405570 16760.702400 17352.350112 17980.959717 18630.693356 19277.989002 19850.132192 20357.946063 20830.343127 21237.986668 21550.704044 21732.450501 21847.098006 21862.202913 21696.651534 21454.893341 21185.518153 20862.688447 20599.501670 20543.067777 20543.067777 20543.067777 -0.000009 -0.000009 -0.000009 -0.000009 -0.000012 -0.000019 -0.000026 -0.000034 -0.000042 -0.000049 -0.000053 -0.000052 -0.000040 -0.000012 0.000044 0.000143 0.000309 0.000575 0.000990 0.001621 0.002563 0.003949 0.005959 0.008841 0.012930 0.018676 0.026678 0.037733 0.052888 0.073513 0.101389 0.138819 0.188760 0.254992 0.342326 0.456877 0.606446 0.801143 1.054575 1.386482 1.829189 2.444249 3.366451 4.921308 7.939628 14.584072 30.312434 67.172201 143.190891 267.232596 429.448714 628.870563 849.662970 982.876692 950.614205 879.181790 969.073031 1316.418801 1854.779533 2350.329669 2678.128652 3001.932981 3395.237992 3866.068650 4419.866427 5022.407633 5577.639587 6141.066993 6769.975935 7405.125935 7890.817562 8260.846303 8706.228175 9240.708364 9776.627682 10269.015181 10754.386939 11280.427223 11795.971093 12224.664053 12580.563024 12887.930186 13162.772063 13465.961601 13856.131057 14274.768332 14703.100253 15181.126466 15705.990972 16231.405570 16760.702400 17352.350112 17980.959717 18630.693356 19277.989002 19850.132192 20357.946063 20830.343127 21237.986668 21550.704044 21732.450501 21847.098006 21862.202913 21696.651534 21454.893341 21185.518153 20862.688447 20599.501670 20543.067777 20543.067777 20543.067777 -0.000009 -0.000009 -0.000009 -0.000009 -0.000012 -0.000019 -0.000026 -0.000034 -0.000042 -0.000049 -0.000053 -0.000052 -0.000040 -0.000012 0.000044 0.000143 0.000309 0.000575 0.000990 0.001621 0.002563 0.003949 0.005959 0.008841 0.012930 0.018676 0.026678 0.037733 0.052888 0.073513 0.101389 0.138819 0.188760 0.254992 0.342326 0.456877 0.606446 0.801143 1.054575 1.386482 1.829189 2.444249 3.366451 4.921308 7.939628 14.584072 30.312434 67.172201 143.190891 267.232596 429.448714 628.870563 849.662970 982.876692 950.614205 879.181790 969.073031 1316.418801 1854.779533 2350.329669 2678.128652 3001.932981 3395.237992 3866.068650 4419.866427 5022.407633 5577.639587 6141.066993 6769.975935 7405.125935 7890.817562 8260.846303 8706.228175 9240.708364 9776.627682 10269.015181 10754.386939 11280.427223 11795.971093 12224.664053 12580.563024 12887.930186 13162.772063 13465.961601 13856.131057 14274.768332 14703.100253 15181.126466 15705.990972 16231.405570 16760.702400 17352.350112 17980.959717 18630.693356 19277.989002 19850.132192 20357.946063 20830.343127 21237.986668 21550.704044 21732.450501 21847.098006 21862.202913 21696.651534 21454.893341 21185.518153 20862.688447 20599.501670 20543.067777 20543.067777 20543.067777 -1385.696396 -1495.666472 -1664.196193 -1923.167263 -2387.313296 -2209.826415 -368.892684 -108.749305 -1268.875515 -1357.290579 561.889769 868.307352 -86.922050 -915.649014 -1446.117904 228.821821 1330.746936 219.548737 -973.181284 -1604.610889 520.717161 1488.447389 13.844163 -1540.428796 -1494.442384 1742.930573 3171.956564 10928.544179 7443.022939 -11115.449540 -5713.750735 10513.473007 5825.188278 4715.393144 6679.729775 6412.010453 10278.829435 11810.192091 13431.478860 10096.338388 10149.910450 10816.071424 10772.802177 12869.757109 12463.802997 12408.404733 11835.959035 12924.468418 13553.860383 12724.218535 12096.380730 11644.601919 11780.585440 11817.282130 11817.282130 11817.282130 -2104.864838 -195.886943 -296.085214 15053.195245 15445.489514 10836.822427 16451.869787 17201.739467 14887.100979 15796.716624 16486.844770 16564.953770 15517.962901 15501.221400 13530.602588 15699.930897 13989.656749 13371.875303 16466.562928 15140.297148 15293.486289 14748.810357 13195.882736 12743.199575 10640.725844 13359.516248 14753.422470 12269.406454 12254.485912 15429.984562 14249.988297 14755.147264 12700.081034 11695.778186 12664.869199 11897.648221 15397.688871 11728.084993 16399.430131 16316.949129 12682.320256 16589.226213 12339.816090 13510.634572 15095.462828 14729.374810 11114.835006 14364.728999 11086.678493 15190.551329 14245.589111 11500.250825 12060.618387 12158.727064 12158.727064 12158.727064 122.672037 67.853961 13762.923362 9144.247597 16482.784740 15310.726874 15120.902167 16692.094021 18683.731060 16384.655945 15221.272501 16259.252784 16913.810038 16757.159305 14321.878801 16584.284430 13863.981626 15937.835693 16063.217962 16783.797699 14246.623292 10562.732930 12252.415708 12790.266320 11215.865124 13217.476828 15113.842870 16033.246629 13520.817146 10544.905926 11803.783407 11242.704408 10770.207778 13959.706308 12872.449330 10760.117225 12910.268818 12822.006201 9673.652637 13212.217317 12189.416628 11276.799583 10780.151310 14852.932771 10209.850114 12795.711746 11651.897769 13765.047270 10770.952167 14337.557643 13651.171704 11919.632282 12570.210635 12682.597096 12682.597096 12682.597096 -17088.518328 20937.796833 16120.988313 13205.106946 15848.624645 14159.542438 15769.139591 14430.721808 16785.994952 14980.800435 17814.133434 18369.694776 15256.320588 13120.911570 17907.806697 16424.807562 16890.594089 15664.768847 16356.020711 14923.260262 16820.012066 15323.217176 12926.263816 14285.490377 15668.071904 13370.564045 16250.548025 16717.815460 15925.853466 13479.239034 15013.866932 11997.863966 12725.482962 15284.896059 14704.281340