<VTKFile type="PolyData">
<PolyData>
<Piece NumberOfPoints="8632" NumberOfVerts="8632" NumberOfLines="0" NumberOfStrips="0" NumberOfPolys="0">
<PointData>
<DataArray type="Float64" Name="Pressure" format="ascii">
 -0.011918 -0.011918 -0.011918 -0.012523 -0.019450 -0.038231 -0.061948 -0.093282 -0.134938 -0.190529 -0.264859 -0.364137 -0.496275 -0.671269 -0.901658 -1.203056 -1.594744 -2.100336 -2.748502 -3.573736 -4.617166 -5.927366 -7.561172 -9.584443 -12.072759 -15.112012 -18.798861 -23.241020 -28.557362 -34.877834 -42.343171 -51.104440 -61.322436 -73.166962 -86.816055 -102.455181 -120.276433 -140.477750 -163.262126 -188.836752 -217.412015 -249.200235 -284.414004 -323.264016 -365.956247 -412.688340 -463.644887 -518.990916 -578.861733 -643.344519 -712.440161 -785.977270 -863.410813 -943.355892 -1022.566855 -1094.596428 -1149.329688 -1170.964020 -1131.349877 -1002.158283 -814.680635 -651.898699 -516.171702 -359.271789 -210.242324 -152.349311 -173.643855 -192.774171 -149.186109 -71.665041 -45.557394 -62.640428 -39.852736 48.790863 126.116745 162.704685 226.512864 330.955088 393.325984 389.402410 386.939023 463.680437 623.162558 779.034727 888.188441 1008.380622 1223.544972 1547.363400 1894.484334 2213.340672 2562.613016 3030.552200 3627.592934 4287.106939 4974.788388 5709.275275 6474.273508 7220.660458 7940.730499 8627.779376 9260.355443 9851.889797 10434.355316 11022.237765 11595.242097 12148.968168 12708.775273 13110.095488 13188.777609 13188.777609 13188.777609 -0.011918 -0.011918 -0.011918 -0.012523 -0.019450 -0.038231 -0.061948 -0.093282 -0.134938 -0.190529 -0.264859 -0.364137 -0.496275 -0.671269 -0.901658 -1.203056 -1.594744 -2.100336 -2.748502 -3.573736 -4.617166 -5.927366 -7.561172 -9.584443 -12.072759 -15.112012 -18.798861 -23.241020 -28.557362 -34.877834 -42.343171 -51.104440 -61.322436 -73.166962 -86.816055 -102.455181 -120.276433 -140.477750 -163.262126 -188.836752 -217.412015 -249.200235 -284.414004 -323.264016 -365.956247 -412.688340 -463.644887 -518.990916 -578.861733 -643.344519 -712.440161 -785.977270 -863.410813 -943.355892 -1022.566855 -1094.596428 -1149.329688 -1170.964020 -1131.349877 -1002.158283 -814.680635 -651.898699 -516.171702 -359.271789 -210.242324 -152.349311 -173.643855 -192.774171 -149.186109 -71.665041 -45.557394 -62.640428 -39.852736 48.790863 126.116745 162.704685 226.512864 330.955088 393.325984 389.402410 386.939023 463.680437 623.162558 779.034727 888.188441 1008.380622 1223.544972 1547.363400 1894.484334 2213.340672 2562.613016 3030.552200 3627.592934 4287.106939 4974.788388 5709.275275 6474.273508 7220.660458 7940.730499 8627.779376 9260.355443 9851.889797 10434.355316 11022.237765 11595.242097 12148.968168 12708.775273 13110.095488 13188.777609 13188.777609 13188.777609 -0.011918 -0.011918 -0.011918 -0.012523 -0.019450 -0.038231 -0.061948 -0.093282 -0.134938 -0.190529 -0.264859 -0.364137 -0.496275 -0.671269 -0.901658 -1.203056 -1.594744 -2.100336 -2.748502 -3.573736 -4.617166 -5.927366 -7.561172 -9.584443 -12.072759 -15.112012 -18.798861 -23.241020 -28.557362 -34.877834 -42.343171 -51.104440 -61.322436 -73.166962 -86.816055 -102.455181 -120.276433 -140.477750 -163.262126 -188.836752 -217.412015 -249.200235 -284.414004 -323.264016 -365.956247 -412.688340 -463.644887 -518.990916 -578.861733 -643.344519 -712.440161 -785.977270 -863.410813 -943.355892 -1022.566855 -1094.596428 -1149.329688 -1170.964020 -1131.349877 -1002.158283 -814.680635 -651.898699 -516.171702 -359.271789 -210.242324 -152.349311 -173.643855 -192.774171 -149.186109 -71.665041 -45.557394 -62.640428 -39.852736 48.790863 126.116745 162.704685 226.512864 330.955088 393.325984 389.402410 386.939023 463.680437 623.162558 779.034727 888.188441 1008.380622 1223.544972 1547.363400 1894.484334 2213.340672 2562.613016 3030.552200 3627.592934 4287.106939 4974.788388 5709.275275 6474.273508 7220.660458 7940.730499 8627.779376 9260.355443 9851.889797 10434.355316 11022.237765 11595.242097 12148.968168 12708.775273 13110.095488 13188.777609 13188.777609 13188.777609 -0.011799 -0.011799 -0.011799 -0.012390 -0.019243 -0.037859 -0.061560 -0.092976 -0.134675 -0.190243 -0.264503 -0.363678 -0.495678 -0.670498 -0.900670 -1.201798 -1.593155 -2.098345 -2.746027 -3.570683 -4.613429 -5.922830 -7.555707 -9.577912 -12.065015 -15.102903 -18.788228 -23.228704 -28.543206 -34.861683 -42.324878 -51.083865 -61.299449 -73.141444 -86.787899 -102.424288 -120.242717 -140.441135 -163.222545 -188.794154 -217.366367 -249.151533 -284.362290 -323.209413 -365.899036 -412.629134 -463.585058 -518.933651 -578.814658 -643.326238 -712.496497 -786.221087 -864.115617 -945.152994 -1026.550018 -1102.178508 -1162.244695 -1192.865403 -1161.609993 -1045.943663 -820.535021 -641.210444 -524.198216 -361.780947 -170.065984 -125.230339 -174.200987 -215.773481 -164.015419 -51.560707 -30.082995 -78.015265 -66.735602 50.778297 139.330938 148.563586 205.856376 342.975461 414.827123 385.763397 353.122132 425.449431 617.466711 788.948333 874.759464 960.214020 1163.680833 1515.341244 1874.720174 2160.607071 2462.393443 2913.270732 3535.146722 4210.141772 4888.746572 5628.748498 6425.685004 7186.888371 7920.932686 8635.369091 9279.196617 9881.335086 10480.363313 11098.189254 11676.015281 12194.422049 12723.877262 13111.288453 13187.153974 13187.153974 13187.153974 -0.010536 -0.010536 -0.010536 -0.010992 -0.016764 -0.032873 -0.056580 -0.089780 -0.132042 -0.187388 -0.260956 -0.359094 -0.489727 -0.662809 -0.890806 -1.189243 -1.577298 -2.078474 -2.721320 -3.540204 -4.576125 -5.877530 -7.501134 -9.512684 -11.987668 -15.011904 -18.682004 -23.105662 -28.401766 -34.700301 -42.142075 -50.878245 -61.069716 -72.886408 -86.506480 -102.115514 -119.905718 -140.075143 -162.826906 -188.368349 -216.910066 -248.664688 -283.845310 -322.663504 -365.326938 -412.036833 -462.985931 -518.358697 -578.337974 -643.128549 -713.023515 -788.576331 -871.021492 -963.104269 -1070.796263 -1188.750545 -1304.937970 -1439.543889 -1639.332520 -1686.213114 -857.313774 -487.216855 -744.916401 -488.103497 390.533667 282.204851 -193.602201 -592.245632 -469.986572 354.834008 258.005276 -303.901329 -587.017433 155.741261 477.553392 -88.622699 -228.883072 596.582665 784.129998 356.072356 -99.718788 -187.703439 615.204959 1040.462880 745.031875 343.334609 297.592376 1183.609719 1790.947635 1575.385936 1179.828678 1395.480840 2471.565892 3480.949547 4024.231576 4808.952979 6142.257423 7032.256227 7829.910818 8886.095292 9651.449605 10349.253237 11140.466518 12175.904171 12877.481808 12817.660312 12952.684426 13135.578892 13165.397675 13165.397675 13165.397675 -0.008844 -0.008844 -0.008844 -0.009188 -0.013201 -0.024222 -0.046046 -0.084745 -0.128742 -0.184065 -0.256924 -0.353918 -0.483016 -0.654137 -0.879678 -1.175071 -1.559390 -2.056021 -2.693389 -3.505731 -4.533912 -5.826248 -7.439326 -9.438780 -11.899999 -14.908725 -18.561520 -22.966059 -28.241242 -34.517100 -41.934510 -50.644728 -60.808771 -72.596684 -86.186749 -101.764671 -119.522776 -139.659231 -162.377278 -187.884416 -216.391461 -248.111387 -283.257866 -322.043534 -364.678192 -411.367723 -462.315707 -517.732738 -577.865903 -643.079493 -714.064748 -792.375027 -881.790033 -991.846892 -1147.941447 -1312.187723 -1477.753122 -1735.962972 -2231.052464 -2107.115609 -359.975993 -114.880970 -1161.433100 -839.401783 1060.692136 862.327832 -230.708559 -1290.824576 -1118.876707 1082.369873 849.642775 -807.698457 -1796.091439 431.494062 1465.334812 -758.006120 -1463.949540 1399.139729 1779.141067 336.048604 -986.852212 -1704.410619 893.861787 1975.835776 635.489422 -739.086936 -1691.383512 972.969555 2386.642718 897.259300 -939.536197 -1909.764678 1308.058624 3489.849089 3869.471420 3611.195469 7537.618444 8319.028124 7610.156947 10231.173319 10666.988855 11818.692163 12351.441611 13365.812583 15469.977151 13284.920155 13262.278674 13205.455621 13115.091549 13115.091549 13115.091549 -0.008622 -0.008622 -0.008622 -0.008949 -0.012734 -0.022885 -0.007201 -0.007201 -0.007201 -0.007409 -0.009794 -0.015109 -0.005228 -0.005228 -0.005228 -0.005318 -0.006278 -0.007904 -0.003680 -0.003680 -0.003680 -0.003713 -0.004046 -0.004589 -0.002539 -0.002539 -0.002539 -0.002550 -0.002650 -0.002820 -0.001729 -0.001729 -0.001729 -0.001731 -0.001751 -0.001795 -0.001165 -0.001165 -0.001165 -0.001165 -0.001161 -0.001164 -0.000779 -0.000779 -0.000779 -0.000778 -0.000769 -0.000761 -0.000517 -0.000517 -0.000517 -0.000516 -0.000507 -0.000498 -0.000341 -0.000341 -0.000341 -0.000340 -0.000333 -0.000326 -0.000223 -0.000223 -0.000223 -0.000223 -0.000218 -0.000212 -0.000145 -0.000145 -0.000145 -0.000145 -0.000141 -0.000138 -0.000094 -0.000094 -0.000094 -0.000094 -0.000091 -0.000089 -0.000060 -0.000060 -0.000060 -0.000060 -0.000059 -0.000057 -0.000039 -0.000039 -0.000039 -0.000039 -0.000037 -0.000036 -0.000025 -0.000025 -0.000025 -0.000024 -0.000024 -0.000023 -0.000015 -0.000015 -0.000015 -0.000015 -0.000015 -0.000015 -0.000010 -0.000010 -0.000010 -0.000010 -0.000009 -0.000009 -0.000006 -0.000006 -0.000006 -0.000006 -0.000006 -0.000006 -0.000004 -0.000004 -0.000004 -0.000004 -0.000004 -0.000004 -0.000002 -0.000002 -0.000002 -0.000002 -0.000002 -0.000002 -0.000001 -0.000001 -0.000001 -0.000001 -0.000001 -0.000001 -0.000001 -0.000001 -0.000001 -0.000001 -0.000001 -0.000001 -0.000001 -0.000001 -0.000001 -0.000001 -0.000001 -0.000000 -0.000000 -0.000000 -0.000000 -0.000000 -0.000000 -0.000000 -0.000000 -0.000000 -0.000000 -0.000000 -0.000000 -0.000000 -0.000000 -0.000000 -0.000000 -0.000000 -0.000000 -0.000000 -0.000000 -0.000000 -0.000000 -0.000000 -0.000000 -0.000000 -0.000000 -0.000000 -0.000000 -0.000000 -0.000000 -0.000000 -0.000000 -0.000000 -0.000000 -0.000000 -0.000000 -0.000000 -0.000000 -0.000000 -0.000000 -0.000000 -0.000000 -0.000000 -0.000000 -0.000000 -0.000000 -0.000000 -0.000000 -0.000000 -0.000000 -0.000000 -0.000000 -0.000000 -0.000000 -0.000000 -0.000000 -0.000000 -0.000000 -0.000000 -0.000000 -0.000000 -0.000000 -0.000000 -0.000000 -0.000000 -0.000000 -0.000000 -0.000000 -0.000000 -0.000000 -0.000000 -0.000000 -0.000000 -0.000000 -0.000000 -0.000000 -0.000000 0.000000 -0.000000 0.000000 0.000000 0.000000 -0.000000 0.000000 0.000000 0.000000 0.000000 0.000000 0.000000 0.000000 0.000000 -0.000000 -0.000000 -0.000000 0.000000 -0.000000 0.000000 -0.000000 -0.000000 -0.000000 -0.000000 -0.000000 -0.000000 -0.000000 -0.000000 -0.000000 -0.000000 -0.000000 -0.000000 -0.000000 -0.000000 -0.000000 -0.000000 -0.000000 -0.000000 -0.000000 -0.000000 -0.000000 -0.000000 -0.000000 -0.000000 -0.000000 -0.000000 -0.000000 -0.000000 -0.000000 -0.000000 -0.000000 -0.000000 -0.000000 -0.000000 -0.000000 -0.000000 -0.000000 -0.000000 -0.000000 -0.000000 -0.000000 -0.000000 -0.000000 -0.000000 -0.000000 -0.000000 -0.000000 -0.000000 -0.000000 -0.000000 -0.000000 -0.000000 -0.000000 -0.000000 -0.000000 -0.000000 -0.000000 -0.000000 -0.000000 -0.000000 -0.000000 -0.000000 -0.000000 -0.000000 -0.000000 -0.000000 -0.000000 -0.000000 -0.000000 -0.000000 -0.000000 -0.000000 -0.000000 -0.000000 -0.000000 -0.000000 -0.000000 -0.000000 -0.000000 -0.000000 -0.000000 -0.000000 -0.000000 -0.000000 -0.000000 -0.000000 -0.000000 -0.000000 -0.000000 -0.000000 -0.000000 -0.000000 -0.000000 -0.000000 -0.000000 -0.000000 -0.000000 -0.000000 -0.000000 -0.000000 -0.000000 -0.000000 -0.000000 -0.000000 -0.000000 -0.000000 -0.000000 -0.000000 -0.000000 -0.000000 -0.000000 -0.000000 -0.000000 -0.000000 -0.000000 -0.000000 -0.000000 -0.000000 -0.000000 -0.000000 -0.000000 -0.000000 -0.000000 -0.000000 -0.000000 -0.000000 -0.000000 -0.000000 -0.000000 -0.000000 -0.000000 -0.000000 -0.000000 -0.000000 -0.000000 -0.000000 -0.000000 -0.000000 -0.000000 -0.000000 -0.000000 -0.000000 -0.000000 -0.000000 -0.000000 -0.000000 -0.000000 -0.000000 -0.000000 -0.000000 -0.000000 -0.000000 -0.000000 -0.000000 -0.000000 -0.000000 -0.000000 -0.000000 -0.000000 -0.000000 -0.000000 -0.000000 -0.000000 -0.000000 -0.000000 -0.000000 -0.000000 -0.000000 -0.000000 -0.000000 -0.000000 -0.000000 -0.000000 -0.000000 -0.000000 -0.000000 -0.000000 -0.000000 -0.000000 -0.000000 -0.000000 -0.000000 -0.000000 -0.000000 -0.000000 -0.000000 -0.000000 -0.000000 -0.000000 -0.000000 -0.000000 -0.000000 -0.000000 -0.000000 -0.000000 -0.000000 -0.000000 -0.000000 -0.000000 -0.000000 -0.000000 -0.000000 -0.000000 -0.000000 -0.000000 -0.000000 -0.000000 -0.000000 -0.000000 -0.000000 -0.000000 -0.000000 -0.000000 -0.000000 -0.000000 -0.000000 -0.000000 -0.000000 -0.000000 -0.000000 -0.000000 -0.000000 -0.000000 -0.000000 -0.000000 -0.000000 -0.000000 -0.000000 -0.000000 -0.000000 -0.000000 -0.000000 -0.000000 -0.000000 -0.000000 -0.000000 -0.000000 -0.000000 -0.000000 -0.000000 -0.000000 -0.000000 -0.000000 -0.000000 -0.000000 -0.000000 -0.000000 -0.000000 -0.000000 -0.000000 -0.000000 -0.000000 -0.000000 -0.000000 -0.000000 -0.000000 -0.000000 -0.000000 -0.000000 -0.000000 -0.000000 -0.000000 -0.000000 -0.000000 -0.000000 -0.000000 -0.000000 -0.000000 -0.000000 -0.000000 -0.000000 -0.000000 -0.000000 -0.000000 -0.000000 -0.000000 -0.000000 -0.000000 -0.000000 -0.000000 -0.000000 -0.000000 -0.000000 -0.000000 -0.000000 -0.000000 -0.000000 -0.000000 -0.000000 -0.000000 -0.000000 -0.000000 -0.000000 -0.000000 -0.000000 -0.000000 -0.000000 -0.000000 -0.000000 -0.000000 -0.000000 -0.000000 -0.000000 -0.000000 -0.000000 -0.000000 -0.000000 -0.000000 -0.000000 -0.000000 -0.000000 -0.000000 -0.000000 -0.000000 -0.000000 -0.000000 -0.000000 -0.000000 -0.000000 -0.000000 -0.000000 -0.000000 -0.000000 -0.000000 -0.000000 -0.000000 -0.000000 -0.000000 -0.000000 -0.000000 -0.000000 -0.000000 -0.000000 -0.000000 -0.000000 -0.000000 -0.000000 -0.000000 -0.000000 -0.000000 -0.000000 -0.000000 -0.000000 -0.000000 -0.000000 -0.000000 -0.000000 -0.000000 -0.000000 -0.000000 -0.000000 -0.000000 -0.000000 -0.000000 -0.000000 -0.000000 -0.000000 -0.000000 -0.000000 -0.000000 -0.000000 -0.000000 -0.000000 -0.000000 -0.000000 -0.000000 -0.000000 -0.000000 -0.000000 -0.000000 -0.000000 -0.000000 -0.000000 -0.000000 -0.000000 -0.000000 -0.000000 -0.000000 -0.000000 -0.000000 -0.000000 -0.000000 -0.000000 -0.000000 -0.000000 -0.000000 -0.000000 -0.000000 -0.000000 -0.000000 -0.000000 -0.000000 -0.000000 -0.000000 -0.000000 -0.000000 -0.000000 -0.000000 -0.000000 -0.000000 -0.000000 -0.000000 -0.000000 -0.000000 -0.000000 -0.000000 -0.000000 -0.000000 -0.000000 -0.000000 -0.000000 -0.000000 -0.000000 -0.000000 -0.000000 -0.000000 -0.000000 -0.000000 -0.000000 -0.000000 -0.000000 -0.000000 -0.000000 -0.000000 -0.000000 -0.000000 -0.000000 -0.000000 -0.000000 -0.000000 -0.000000 -0.000000 -0.000000 -0.000000 -0.000000 -0.000000 -0.000000 -0.000000 -0.000000 -0.000000 -0.000000 -0.000000 -0.000000 -0.000000 -0.000000 -0.000000 -0.000000 -0.000000 -0.000000 -0.000000 -0.000000 -0.000000 -0.000000 -0.000000 -0.000000 -0.000000 -0.000000 -0.000000 -0.000000 -0.000000 -0.000000 -0.000000 -0.000000 -0.000000 -0.000000 -0.000000 -0.000000 -0.000000 -0.000000 -0.000000 -0.000000 -0.000000 -0.000000 -0.000000 -0.000000 -0.000000 -0.000000 -0.000000 -0.000000 -0.000000 -0.000000 -0.000000 -0.000000 -0.000000 -0.000000 -0.000000 -0.000000 -0.000000 -0.000000 -0.000000 -0.000000 -0.000000 -0.000000 -0.000000 -0.000000 -0.000000 -0.000000 -0.000000 -0.000000 -0.000000 -0.000000 -0.000000 -0.000000 -0.000000 -0.000000 -0.000000 -0.000000 -0.000000 -0.000000 -0.000000 -0.000000 -0.000000 -0.000000 -0.000000 -0.000000 -0.000000 -0.000000 -0.000000 -0.000000 -0.000000 -0.000000 -0.000000 -0.000000 -0.000000 -0.000000 -0.000000 -0.000000 -0.000000 -0.000000 -0.000000 -0.000000 -0.000000 -0.000000 -0.000000 -0.000000 -0.000000 -0.000000 -0.000000 -0.000000 -0.000000 -0.000000 -0.000000 -0.000000 -0.000000 -0.000000 -0.000000 -0.000000 -0.000000 -0.000000 -0.000000 -0.000000 -0.000000 -0.000000 -0.000000 -0.000000 -0.000000 -0.000000 -0.000000 -0.000000 -0.000000 -0.000000 -0.000000 -0.000000 -0.000000 -0.000000 -0.000000 -0.000000 -0.000000 -0.000000 -0.000000 -0.000000 -0.000000 -0.000000 -0.000000 -0.000000 -0.000000 -0.000000 -0.000000 -0.000000 -0.000000 -0.000000 -0.000000 -0.000000 -0.000000 -0.000000 -0.000000 -0.000000 -0.000000 -0.000000 -0.000000 -0.000000 -0.000000 -0.000000 -0.000000 -0.000000 -0.000000 -0.000000 -0.000000 -0.000000 -0.000000 -0.000000 -0.000000 -0.000000 -0.000000 -0.000000 -0.000000 -0.000000 -0.000000 -0.000000 -0.000000 -0.000000 -0.000000 -0.000000 -0.000000 -0.000000 -0.000000 -0.000000 -0.000000 -0.000000 -0.000000 -0.000000 -0.000000 -0.000000 -0.000000 -0.000000 -0.000000 -0.000000 -0.000000 -0.000000 -0.000000 -0.000000 -0.000000 -0.000000 -0.000000 -0.000000 -0.000000 -0.000000 -0.000000 -0.000000 -0.000000 -0.000000 -0.000000 -0.000000 -0.000000 -0.000000 -0.000000 -0.000000 -0.000000 -0.000000 -0.000000 -0.000000 -0.000000 -0.000000 -0.000000 -0.000000 -0.000000 -0.000000 -0.000000 -0.000000 -0.000000 -0.000000 -0.000000 -0.000000 -0.000000 -0.000000 -0.000000 -0.000000 -0.000000 -0.000000 -0.000000 -0.000000 -0.000000 -0.000000 -0.000000 -0.000000 -0.000000 -0.000000 -0.000000 -0.000000 -0.000000 -0.000000 -0.000000 -0.000000 -0.000000 -0.000000 -0.000000 -0.000000 -0.000000 -0.000000 -0.000000 -0.000000 -0.000000 -0.000000 -0.000000 -0.000000 -0.000000 -0.000000 -0.000000 -0.000000 -0.000000 -0.000000 -0.000000 -0.000000 -0.000000 -0.000000 -0.000000 -0.000000 -0.000000 -0.000000 -0.000000 -0.000000 -0.000000 -0.000000 -0.000000 -0.000000 -0.000000 -0.000000 -0.000000 -0.000000 -0.000000 -0.000000 -0.000000 -0.000000 -0.000000 0.000000 -0.000000 -0.000000 -0.000000 -0.000000 -0.000000 -0.000000 -0.000000 -0.000000 -0.000000 -0.000000 -0.000000 -0.000000 -0.000000 -0.000000 -0.000000 -0.000000 -0.000000 -0.000000 -0.000000 -0.000000 -0.000000 -0.000000 -0.000000 -0.000000 -0.000000 -0.000000 -0.000000 -0.000000 -0.000000 -0.000000 -0.000000 -0.000000 -0.000000 -0.000000 -0.000000 -0.000000 -0.000000 -0.000000 -0.000000 -0.000000 -0.000000 -0.000000 -0.000000 -0.000000 -0.000000 -0.000000 -0.000000 -0.000000 -0.000000 -0.000000 -0.000000 -0.000000 -0.000000 -0.000000 -0.000000 -0.000000 -0.000000 -0.000000 -0.000000 -0.000000 -0.000000 -0.000000 -0.000000 -0.000000 -0.000000 -0.000000 -0.000000 -0.000000 -0.000000 -0.000000 -0.000000 -0.000000 -0.000000 -0.000000 -0.000000 -0.000000 -0.000000 -0.000000 -0.000000 -0.000000 -0.000000 -0.000000 -0.000000 -0.000000 -0.000000 -0.000000 -0.000000 -0.000000 -0.000000 -0.000000 -0.000000 -0.000000 -0.000000 -0.000000 -0.000000 -0.000000 -0.000000 -0.000000 -0.000000 -0.000000 -0.000000 -0.000000 -0.000000 -0.000000 -0.000000 -0.000000 -0.000000 -0.000000 -0.000000 -0.000000 -0.000000 -0.000000 -0.000000 -0.000000 -0.000000 -0.000000 -0.000000 -0.000000 -0.000000 -0.000000 -0.000000 -0.000000 -0.000000 -0.000000 -0.000000 -0.000000 -0.000000 -0.000000 -0.000000 -0.000000 -0.000000 -0.000000 -0.000000 -0.000000 -0.000000 -0.000000 -0.000000 -0.000000 -0.000000 -0.000000 -0.000000 -0.000000 -0.000000 -0.000000 -0.000000 -0.000000 -0.000000 -0.000000 -0.000000 -0.000000 -0.000000 -0.000000 -0.000000 -0.000000 -0.000000 -0.000000 -0.000000 -0.000000 -0.000000 -0.000000 -0.000000 -0.000000 -0.000000 -0.000000 -0.000000 -0.000000 -0.000000 -0.000000 -0.000000 -0.000000 -0.000000 -0.000000 -0.000000 -0.000000 -0.000000 -0.000000 -0.000000 -0.000000 -0.000000 -0.000000 -0.000000 -0.000000 -0.000000 -0.000000 -0.000000 -0.000000 -0.000000 -0.000000 -0.000000 -0.000000 -0.000000 -0.000000 -0.000000 -0.000000 -0.000000 -0.000000 -0.000000 -0.000000 -0.000000 -0.000000 -0.000000 -0.000000 -0.000000 -0.000000 -0.000000 -0.000000 -0.000000 -0.000000 -0.000000 -0.000000 -0.000000 -0.000000 -0.000000 -0.000000 -0.000000 -0.000000 -0.000000 -0.000000 -0.000000 -0.000000 -0.000000 -0.000000 -0.000000 -0.000000 -0.000000 -0.000000 -0.000000 -0.000000 -0.000000 -0.000000 -0.000000 -0.000000 -0.000000 -0.000000 -0.000000 -0.000000 -0.000000 -0.000000 -0.000000 -0.000000 -0.000000 -0.000000 -0.000000 -0.000000 -0.000000 -0.000000 -0.000001 -0.000001 -0.000002 -0.000003 -0.000005 -0.000008 -0.000012 -0.000018 -0.000027 -0.000041 -0.000061 -0.000090 -0.000133 -0.000193 -0.000278 -0.000396 -0.000560 -0.000784 -0.001085 -0.001484 -0.002006 -0.002674 -0.003511 -0.004529 -0.005724 -0.007057 -0.008431 -0.009652 -0.010381 -0.010054 -0.007777 -0.002180 0.008789 0.028131 0.060156 0.110958 0.189022 0.306003 0.477711 0.725337 1.076962 1.569386 2.250327 3.181013 4.439207 6.122661 8.353009 11.280055 15.086376 19.992159 26.260088 34.200132 44.174034 56.599336 71.952847 90.773534 113.664853 141.296464 174.404853 213.791584 260.316618 314.883023 378.409793 451.794871 535.886708 631.519922 739.743729 862.500011 1004.204636 1174.914101 1395.790469 1706.708883 2169.249999 2877.898669 3170.263098 2191.002360 2081.338246 3227.146314 3589.061533 3794.674258 4863.515623 5926.741655 5447.118046 7835.662267 9830.295974 8142.502757 11364.671411 10185.794318 11584.729032 13060.444947 12282.471979 13367.649649 13547.947106 15124.873202 14913.864968 13563.186908 13861.744993 14109.816740 14109.816740 14109.816740 -0.000000 -0.000000 -0.000000 -0.000000 -0.000000 -0.000000 -0.000000 -0.000000 -0.000000 -0.000000 -0.000001 -0.000001 -0.000001 -0.000002 -0.000003 -0.000005 -0.000008 -0.000012 -0.000018 -0.000028 -0.000042 -0.000063 -0.000092 -0.000135 -0.000196 -0.000283 -0.000403 -0.000569 -0.000795 -0.001099 -0.001502 -0.002028 -0.002699 -0.003538 -0.004556 -0.005746 -0.007065 -0.008411 -0.009584 -0.010232 -0.009777 -0.007302 -0.001409 0.009995 0.029962 0.062873 0.114909 0.194671 0.313956 0.488757 0.740484 1.097489 1.596893 2.286798 3.228876 4.501401 6.202697 8.455033 11.408890 15.247562 20.191953 26.505452 34.498685 44.533975 57.029357 72.462040 91.371302 114.360825 142.100357 175.326186 214.839079 261.497141 316.200078 379.861975 453.375022 537.581438 633.302063 741.524599 863.934518 1004.059570 1169.317374 1373.956474 1641.393642 1998.948700 2421.905626 2744.599519 2876.674232 3149.038140 3706.510412 4366.806187 4844.213910 5507.744936 6129.213596 6542.729408 7969.112844 9170.144898 9645.950662 11164.682859 10794.071770 11651.037325 12365.135129 12240.353466 12419.981754 12409.525593 14055.229665 15049.236354 13963.237858 13496.679111 13529.166942 13529.166942 13529.166942 -0.000000 -0.000000 -0.000000 -0.000000 -0.000000 -0.000000 -0.000000 -0.000000 -0.000000 -0.000000 -0.000001 -0.000001 -0.000001 -0.000002 -0.000003 -0.000005 -0.000008 -0.000012 -0.000019 -0.000029 -0.000043 -0.000064 -0.000095 -0.000138 -0.000201 -0.000288 -0.000410 -0.000579 -0.000808 -0.001116 -0.001523 -0.002052 -0.002728 -0.003569 -0.004586 -0.005769 -0.007073 -0.008386 -0.009502 -0.010055 -0.009449 -0.006744 -0.000505 0.011404 0.032097 0.066035 0.119501 0.201227 0.323179 0.501553 0.758016 1.121228 1.628682 2.328917 3.284115 4.573134 6.294954 8.572568 11.557233 15.433054 20.421759 26.787538 34.841762 44.947419 57.523108 73.046494 92.057213 115.159195 143.022261 176.382406 216.039362 262.848928 317.706749 381.521165 455.178087 539.514434 635.342040 743.600602 865.752291 1004.518739 1164.908140 1355.029331 1585.270239 1862.886991 2180.098957 2510.269848 2845.927956 3238.123878 3733.561309 4315.531474 4954.690841 5645.651333 6363.415868 7111.978905 7938.727187 8750.885610 9503.413461 10223.684142 10820.202168 11388.185625 11867.135111 12219.735471 12540.928923 12859.702282 13307.844024 13610.144332 13400.544897 13227.681808 13213.234585 13213.234585 13213.234585 -0.000000 -0.000000 -0.000000 -0.000000 -0.000000 -0.000000 -0.000000 -0.000000 -0.000000 -0.000000 -0.000001 -0.000001 -0.000001 -0.000002 -0.000003 -0.000005 -0.000008 -0.000013 -0.000019 -0.000029 -0.000043 -0.000064 -0.000095 -0.000139 -0.000201 -0.000289 -0.000412 -0.000581 -0.000810 -0.001119 -0.001527 -0.002057 -0.002733 -0.003574 -0.004591 -0.005773 -0.007074 -0.008382 -0.009487 -0.010023 -0.009390 -0.006643 -0.000341 0.011659 0.032484 0.066607 0.120332 0.202412 0.324844 0.503862 0.761179 1.125509 1.634412 2.336505 3.294064 4.586048 6.311558 8.593714 11.583913 15.466405 20.463066 26.838227 34.903395 45.021676 57.611768 73.151420 92.180332 115.302477 143.187685 176.571893 216.254633 263.091276 317.976718 381.818263 455.500745 539.860351 635.708058 743.977367 866.097761 1004.667877 1164.324732 1352.246742 1576.977002 1843.856253 2148.215219 2477.020922 2830.131212 3236.328175 3727.092896 4304.287986 4949.911743 5647.266751 6376.570037 7131.844490 7917.362266 8693.873050 9435.761267 10135.528838 10760.391485 11327.435837 11810.873618 12207.252646 12563.713496 12906.615108 13216.325688 13359.533278 13288.780227 13188.529215 13168.936909 13168.936909 13168.936909 -0.000000 -0.000000 -0.000000 -0.000000 -0.000000 -0.000000 -0.000000 -0.000000 -0.000000 -0.000000 -0.000001 -0.000001 -0.000001 -0.000002 -0.000003 -0.000005 -0.000008 -0.000013 -0.000019 -0.000029 -0.000043 -0.000064 -0.000095 -0.000139 -0.000201 -0.000289 -0.000412 -0.000581 -0.000810 -0.001119 -0.001527 -0.002057 -0.002733 -0.003574 -0.004591 -0.005773 -0.007074 -0.008382 -0.009487 -0.010023 -0.009390 -0.006643 -0.000341 0.011659 0.032484 0.066607 0.120332 0.202412 0.324844 0.503862 0.761179 1.125509 1.634412 2.336505 3.294064 4.586048 6.311558 8.593714 11.583913 15.466405 20.463066 26.838227 34.903395 45.021676 57.611768 73.151420 92.180332 115.302477 143.187685 176.571893 216.254633 263.091276 317.976718 381.818263 455.500745 539.860351 635.708058 743.977367 866.097761 1004.667877 1164.324732 1352.246742 1576.977002 1843.856253 2148.215219 2477.020922 2830.131212 3236.328175 3727.092896 4304.287986 4949.911743 5647.266751 6376.570037 7131.844490 7917.362266 8693.873050 9435.761267 10135.528838 10760.391485 11327.435837 11810.873618 12207.252646 12563.713496 12906.615108 13216.325688 13359.533278 13288.780227 13188.529215 13168.936909 13168.936909 13168.936909 -0.000000 -0.000000 -0.000000 -0.000000 -0.000000 -0.000000 -0.000000 -0.000000 -0.000000 -0.000000 -0.000001 -0.000001 -0.000001 -0.000002 -0.000003 -0.000005 -0.000008 -0.000013 -0.000019 -0.000029 -0.000043 -0.000064 -0.000095 -0.000139 -0.000201 -0.000289 -0.000412 -0.000581 -0.000810 -0.001119 -0.001527 -0.002057 -0.002733 -0.003574 -0.004591 -0.005773 -0.007074 -0.008382 -0.009487 -0.010023 -0.009390 -0.006643 -0.000341 0.011659 0.032484 0.066607 0.120332 0.202412 0.324844 0.503862 0.761179 1.125509 1.634412 2.336505 3.294064 4.586048 6.311558 8.593714 11.583913 15.466405 20.463066 26.838227 34.903395 45.021676 57.611768 73.151420 92.180332 115.302477 143.187685 176.571893 216.254633 263.091276 317.976718 381.818263 455.500745 539.860351 635.708058 743.977367 866.097761 1004.667877 1164.324732 1352.246742 1576.977002 1843.856253 2148.215219 2477.020922 2830.131212 3236.328175 3727.092896 4304.287986 4949.911743 5647.266751 6376.570037 7131.844490 7917.362266 8693.873050 9435.761267 10135.528838 10760.391485 11327.435837 11810.873618 12207.252646 12563.713496 12906.615108 13216.325688 13359.533278 13288.780227 13188.529215 13168.936909 13168.936909 13168.936909 -1354.370871 -1535.157681 -1835.886033 -2345.280377 -1721.404406 36.125836 -279.197198 -1354.104305 -519.378256 1272.121177 663.259797 -447.522333 -1569.210705 -794.119290 1402.667110 584.483266 -1219.493315 -1741.787250 1058.815032 1253.848646 -1373.248811 -1197.911632 2057.162334 1642.880938 89.762232 -1452.428197 -1633.618418 1604.083786 1939.576003 363.144114 -1276.066004 -1762.508286 1745.470565 2367.694992 505.840561 -2052.695589 -2430.552814 1890.987607 4310.484046 4037.546607 4408.667733 8997.704792 8391.169950 7780.432544 11364.977664 10639.259933 12786.489075 12206.694678 14100.043727 15321.735038 12954.928504 13469.817460 13176.703043 13101.572322 13101.572322 13101.572322 -2056.550091 156.318436 -300.086910 13342.175940 14059.228235 10930.723463 15740.321924 8112.982753 8174.433212 13955.905776 8246.443228 7774.043053 19297.075106 15836.358314 10627.019534 7503.594228 9732.261719 11800.518490 14710.919848 11669.933647 12170.262093 12128.097018 10339.913004 10199.643134 10966.334751 10945.843294 9938.890794 9995.899216 9553.299314 12431.824503 11257.726197 12211.934329 10514.060872 10972.077321 10850.321788 11600.296326 12496.095885 9630.406347 12545.475161 13888.564587 11311.204592 7477.971235 9933.705855 10245.007166 11428.048103 12405.977185 12039.639285 12656.773140 10273.858727 10359.936874 13683.625504 15467.459583 13234.768098 12898.418407 12898.418407 12898.418407 135.602258 117.463413 3991.446154 3649.218427 10066.740016 14741.243757 16144.380301 7949.615264 14616.537667 11262.963379 13596.934673 11438.003652 12707.514686 14326.505008 11720.701589 15218.794937 6888.144967 19729.581489 10585.956897 13519.175766 8611.390409 11469.522354 10545.152782 10692.508889 11137.412655 12159.857748 9029.314056 11383.855369 8858.202545 10535.164763 9628.892603 9753.791371 10031.953122 7649.128154 10499.670526 10065.682756 9767.874520 10760.912200 9712.662461 9244.517806 10752.029295 9595.658303 10261.754701 11568.101403 10390.495418 11656.432081 10854.581650 11003.024365 9637.673786 12766.195276 11159.682933 14158.201742 12458.341865 12396.060891 12396.060891 12396.060891 -239.621133 -554.312293 8775.893473 5905.105513 11777.476021 4798.808711 12563.344945 5030.703386 12613.206002 12970.447402 11568.950692 13996.018291 9071.946073 6209.733531 13859.940518 8491.260559 7818.375130 8510.066526 8427.307571 12797.482180 12021.741763 7038.233575 8274.163237 11121.574519 9651.488441 7364.870462 10586.927539 8828.665946 10554.100492 11559.256288 10989.866958 9801.666849 11401.852538 7889.911935 13546.364264 10953.721546 9849.036296 8616.310541 9216.862966 11042.701088 7901.965356 9177.581451 9338.718325 13504.584760 10841.760401 15026.839770 14299.917320 11100.198697 11385.399197 13517.261984 12418.069524 11253.927440 11869.585746 12066.931955 12066.931955 12066.931955 2354.898536 2342.020547 2592.742444 6189.852514 917.829715 11373.678261 8598.069027 8868.362096 5837.877514 9939.468264 4215.885629 6198.987555 6148.043425 11070.134373 9641.078046 14945.479327 4056.899578 5558.493304 6796.47