<VTKFile type="PolyData">
<PolyData>
<Piece NumberOfPoints="8632" NumberOfVerts="8632" NumberOfLines="0" NumberOfStrips="0" NumberOfPolys="0">
<PointData>
<DataArray type="Float64" Name="Pressure" format="ascii">
 -0.327470 -0.327470 -0.327470 -0.335778 -0.429602 -0.675983 -0.965996 -1.314865 -1.731579 -2.228508 -2.822332 -3.533367 -4.385271 -5.405134 -6.623746 -8.075955 -9.801041 -11.843107 -14.251458 -17.080963 -20.392390 -24.252719 -28.735393 -33.920535 -39.895088 -46.752894 -54.594669 -63.527899 -73.666605 -85.130985 -98.046918 -112.545289 -128.761155 -146.832696 -166.899972 -189.103453 -213.582327 -240.472593 -269.904972 -302.002660 -336.879031 -374.635384 -415.358917 -459.121148 -505.977072 -555.965343 -609.109756 -665.421981 -724.904775 -787.552958 -853.344898 -922.206265 -993.902345 -1067.766221 -1142.102306 -1213.531872 -1277.088033 -1325.464987 -1345.156405 -1309.817638 -1189.600819 -1012.825807 -864.913597 -750.086168 -607.328955 -441.360900 -337.154308 -310.353729 -302.439926 -252.437746 -156.327195 -93.459510 -105.417740 -134.837439 -109.496196 -32.789335 11.077967 1.155780 10.611482 90.796354 188.527651 222.866790 211.083277 235.829969 358.791829 552.484661 728.659547 872.032097 1052.304914 1365.283686 1880.133894 2571.709175 3313.915119 4007.213639 4632.692397 5194.476815 5697.435497 6169.234192 6672.578114 7231.015739 7804.228433 8353.591636 8855.416804 9288.490229 9642.351619 9910.331420 10093.488219 10186.553461 10202.114768 10202.114768 10202.114768 -0.327470 -0.327470 -0.327470 -0.335778 -0.429602 -0.675983 -0.965996 -1.314865 -1.731579 -2.228508 -2.822332 -3.533367 -4.385271 -5.405134 -6.623746 -8.075955 -9.801041 -11.843107 -14.251458 -17.080963 -20.392390 -24.252719 -28.735393 -33.920535 -39.895088 -46.752894 -54.594669 -63.527899 -73.666605 -85.130985 -98.046918 -112.545289 -128.761155 -146.832696 -166.899972 -189.103453 -213.582327 -240.472593 -269.904972 -302.002660 -336.879031 -374.635384 -415.358917 -459.121148 -505.977072 -555.965343 -609.109756 -665.421981 -724.904775 -787.552958 -853.344898 -922.206265 -993.902345 -1067.766221 -1142.102306 -1213.531872 -1277.088033 -1325.464987 -1345.156405 -1309.817638 -1189.600819 -1012.825807 -864.913597 -750.086168 -607.328955 -441.360900 -337.154308 -310.353729 -302.439926 -252.437746 -156.327195 -93.459510 -105.417740 -134.837439 -109.496196 -32.789335 11.077967 1.155780 10.611482 90.796354 188.527651 222.866790 211.083277 235.829969 358.791829 552.484661 728.659547 872.032097 1052.304914 1365.283686 1880.133894 2571.709175 3313.915119 4007.213639 4632.692397 5194.476815 5697.435497 6169.234192 6672.578114 7231.015739 7804.228433 8353.591636 8855.416804 9288.490229 9642.351619 9910.331420 10093.488219 10186.553461 10202.114768 10202.114768 10202.114768 -0.327470 -0.327470 -0.327470 -0.335778 -0.429602 -0.675983 -0.965996 -1.314865 -1.731579 -2.228508 -2.822332 -3.533367 -4.385271 -5.405134 -6.623746 -8.075955 -9.801041 -11.843107 -14.251458 -17.080963 -20.392390 -24.252719 -28.735393 -33.920535 -39.895088 -46.752894 -54.594669 -63.527899 -73.666605 -85.130985 -98.046918 -112.545289 -128.761155 -146.832696 -166.899972 -189.103453 -213.582327 -240.472593 -269.904972 -302.002660 -336.879031 -374.635384 -415.358917 -459.121148 -505.977072 -555.965343 -609.109756 -665.421981 -724.904775 -787.552958 -853.344898 -922.206265 -993.902345 -1067.766221 -1142.102306 -1213.531872 -1277.088033 -1325.464987 -1345.156405 -1309.817638 -1189.600819 -1012.825807 -864.913597 -750.086168 -607.328955 -441.360900 -337.154308 -310.353729 -302.439926 -252.437746 -156.327195 -93.459510 -105.417740 -134.837439 -109.496196 -32.789335 11.077967 1.155780 10.611482 90.796354 188.527651 222.866790 211.083277 235.829969 358.791829 552.484661 728.659547 872.032097 1052.304914 1365.283686 1880.133894 2571.709175 3313.915119 4007.213639 4632.692397 5194.476815 5697.435497 6169.234192 6672.578114 7231.015739 7804.228433 8353.591636 8855.416804 9288.490229 9642.351619 9910.331420 10093.488219 10186.553461 10202.114768 10202.114768 10202.114768 -0.325161 -0.325161 -0.325161 -0.333289 -0.426279 -0.670764 -0.961045 -1.311538 -1.729408 -2.226726 -2.820522 -3.531326 -4.382888 -5.402332 -6.620459 -8.072116 -9.796581 -11.837952 -14.245529 -17.074175 -20.384656 -24.243946 -28.725487 -33.909398 -39.882623 -46.739001 -54.579252 -63.510863 -73.647861 -85.110451 -98.024519 -112.520964 -128.734855 -146.804391 -166.869652 -189.071130 -213.548041 -240.436413 -269.866998 -301.963027 -336.837905 -374.592967 -415.315443 -459.076892 -505.932370 -555.920675 -609.065970 -665.380898 -724.870754 -787.536883 -853.374162 -922.349331 -994.325854 -1068.850320 -1144.453994 -1217.792965 -1283.993698 -1337.348395 -1366.049284 -1338.787519 -1211.294474 -991.037232 -851.588132 -758.907717 -625.889506 -416.791212 -308.998388 -304.109816 -318.666384 -272.243479 -144.257520 -67.650987 -99.506618 -155.395539 -130.003159 -21.245778 30.767703 -6.141152 -17.960542 81.543373 211.571082 240.389125 199.202986 199.689595 331.850719 561.687217 745.337226 863.917123 1007.572725 1289.068561 1812.664879 2570.201668 3382.309667 4116.807618 4772.198595 5351.496685 5854.794565 6291.831442 6768.835149 7323.181480 7886.807448 8424.512238 8923.366546 9361.666172 9725.484059 9992.487379 10149.238876 10211.521324 10221.347616 10221.347616 10221.347616 -0.300368 -0.300368 -0.300368 -0.306735 -0.386060 -0.600951 -0.897099 -1.276357 -1.707575 -2.209007 -2.802492 -3.510956 -4.359089 -5.374347 -6.587625 -8.033771 -9.752029 -11.786451 -14.186288 -17.006357 -20.307379 -24.156291 -28.626503 -33.798114 -39.758053 -46.600161 -54.425172 -63.340602 -73.460524 -84.905211 -97.800639 -112.277823 -128.471971 -146.521456 -166.566560 -188.748009 -213.205285 -240.074710 -269.487352 -301.566776 -336.426726 -374.168868 -414.880769 -458.634372 -505.485350 -555.473877 -608.627675 -664.968799 -724.527149 -787.367360 -853.645099 -923.730977 -998.486740 -1079.760524 -1171.285208 -1267.493855 -1360.154054 -1466.545781 -1600.466230 -1757.897838 -1585.210598 -710.837540 -595.565847 -978.168436 -972.989138 -90.868543 107.091404 -238.855773 -546.989766 -665.334862 40.507106 411.426685 -26.225527 -462.241192 -548.664933 233.422006 410.004225 -111.246042 -490.303375 -103.567317 640.721919 507.774904 50.048159 -313.253818 -115.952528 784.985326 1030.348414 799.996524 458.698768 269.446248 763.156249 2509.335945 4341.536380 5580.711876 6565.592215 7349.844872 7868.812936 7724.368472 7827.321345 8421.431806 8866.430379 9212.712242 9657.187892 10182.483355 10751.015814 11059.667026 10887.216479 10519.904513 10436.613204 10436.613204 10436.613204 -0.265974 -0.265974 -0.265974 -0.270857 -0.327292 -0.478101 -0.758338 -1.217098 -1.677940 -2.187262 -2.781453 -3.487646 -4.332032 -5.342596 -6.550392 -7.990290 -9.701504 -11.728037 -14.119085 -16.929411 -20.219688 -24.056808 -28.514147 -33.671777 -39.616615 -46.442501 -54.250183 -63.147212 -73.247712 -84.672035 -97.546257 -112.001521 -128.173201 -146.199861 -166.222013 -188.380652 -212.815560 -239.663396 -269.055591 -301.116093 -335.959040 -373.686498 -414.386457 -458.131400 -504.977944 -554.968429 -608.136100 -664.517424 -724.179575 -787.282620 -854.224858 -925.993793 -1005.038895 -1097.532184 -1219.872003 -1340.331591 -1452.505652 -1618.530337 -1882.119813 -2361.743478 -2187.857280 -402.534037 -208.344873 -1325.798423 -1399.883679 458.085887 737.384312 -158.176929 -939.499267 -1405.742490 281.639685 1262.206090 127.967607 -1072.475488 -1477.740809 763.253735 1270.858667 -273.569318 -1712.783208 -636.328466 1923.158699 1149.163634 -141.001835 -1475.948654 -1313.255366 1669.668464 1866.665793 754.621855 -250.983734 -1748.702501 -2151.744785 2095.103317 6781.765503 8245.536906 10017.348367 10080.978266 11746.019014 8811.404113 8688.698564 10426.431624 10493.044601 10425.915327 10671.150868 11281.261902 12550.067887 13284.425938 12637.812512 11009.185264 10745.897808 10745.897808 10745.897808 -0.261263 -0.261263 -0.261263 -0.265931 -0.319410 -0.458898 -0.229730 -0.229730 -0.229730 -0.232748 -0.267108 -0.342428 -0.183013 -0.183013 -0.183013 -0.184348 -0.198492 -0.222474 -0.143207 -0.143207 -0.143207 -0.143708 -0.148666 -0.156829 -0.110824 -0.110824 -0.110824 -0.110970 -0.112368 -0.114863 -0.085107 -0.085107 -0.085107 -0.085122 -0.085243 -0.085725 -0.064972 -0.064972 -0.064972 -0.064945 -0.064664 -0.064478 -0.049352 -0.049352 -0.049352 -0.049316 -0.048952 -0.048592 -0.037316 -0.037316 -0.037316 -0.037282 -0.036943 -0.036581 -0.028091 -0.028091 -0.028091 -0.028063 -0.027779 -0.027467 -0.021057 -0.021057 -0.021057 -0.021034 -0.020807 -0.020555 -0.015718 -0.015718 -0.015718 -0.015700 -0.015523 -0.015324 -0.011683 -0.011683 -0.011683 -0.011670 -0.011533 -0.011379 -0.008648 -0.008648 -0.008648 -0.008638 -0.008533 -0.008415 -0.006375 -0.006375 -0.006375 -0.006367 -0.006287 -0.006198 -0.004679 -0.004679 -0.004679 -0.004673 -0.004613 -0.004546 -0.003421 -0.003421 -0.003421 -0.003416 -0.003371 -0.003320 -0.002490 -0.002490 -0.002490 -0.002487 -0.002453 -0.002415 -0.001805 -0.001805 -0.001805 -0.001803 -0.001777 -0.001749 -0.001303 -0.001303 -0.001303 -0.001301 -0.001283 -0.001262 -0.000937 -0.000937 -0.000937 -0.000935 -0.000922 -0.000906 -0.000671 -0.000671 -0.000671 -0.000670 -0.000660 -0.000648 -0.000478 -0.000478 -0.000478 -0.000477 -0.000470 -0.000462 -0.000339 -0.000339 -0.000339 -0.000339 -0.000334 -0.000328 -0.000240 -0.000240 -0.000240 -0.000240 -0.000236 -0.000231 -0.000169 -0.000169 -0.000169 -0.000169 -0.000166 -0.000163 -0.000118 -0.000118 -0.000118 -0.000118 -0.000116 -0.000114 -0.000083 -0.000083 -0.000083 -0.000083 -0.000081 -0.000080 -0.000058 -0.000058 -0.000058 -0.000057 -0.000056 -0.000055 -0.000040 -0.000040 -0.000040 -0.000040 -0.000039 -0.000038 -0.000027 -0.000027 -0.000027 -0.000027 -0.000027 -0.000026 -0.000019 -0.000019 -0.000019 -0.000019 -0.000018 -0.000018 -0.000013 -0.000013 -0.000013 -0.000013 -0.000013 -0.000012 -0.000009 -0.000009 -0.000009 -0.000009 -0.000009 -0.000008 -0.000006 -0.000006 -0.000006 -0.000006 -0.000006 -0.000006 -0.000004 -0.000004 -0.000004 -0.000004 -0.000004 -0.000004 -0.000003 -0.000003 -0.000003 -0.000003 -0.000003 -0.000003 -0.000002 -0.000002 -0.000002 -0.000002 -0.000002 -0.000002 -0.000001 -0.000001 -0.000001 -0.000001 -0.000001 -0.000001 -0.000001 -0.000001 -0.000001 -0.000001 -0.000001 -0.000001 -0.000001 -0.000001 -0.000001 -0.000001 -0.000001 -0.000001 -0.000000 -0.000000 -0.000000 -0.000000 -0.000000 -0.000000 -0.000000 -0.000000 -0.000000 -0.000000 -0.000000 -0.000000 -0.000000 -0.000000 -0.000000 -0.000000 -0.000000 -0.000000 -0.000000 -0.000000 -0.000000 -0.000000 -0.000000 -0.000000 -0.000000 -0.000000 -0.000000 -0.000000 -0.000000 -0.000000 -0.000000 -0.000000 -0.000000 -0.000000 -0.000000 -0.000000 -0.000000 -0.000000 -0.000000 -0.000000 -0.000000 -0.000000 -0.000000 -0.000000 -0.000000 -0.000000 -0.000000 -0.000000 -0.000000 -0.000000 -0.000000 -0.000000 -0.000000 -0.000000 -0.000000 -0.000000 -0.000000 -0.000000 -0.000000 -0.000000 -0.000000 -0.000000 -0.000000 -0.000000 -0.000000 -0.000000 -0.000000 -0.000000 -0.000000 -0.000000 -0.000000 -0.000000 -0.000000 -0.000000 -0.000000 -0.000000 -0.000000 -0.000000 -0.000000 -0.000000 -0.000000 -0.000000 -0.000000 -0.000000 -0.000000 -0.000000 -0.000000 -0.000000 -0.000000 -0.000000 -0.000000 -0.000000 -0.000000 -0.000000 -0.000000 -0.000000 -0.000000 -0.000000 -0.000000 -0.000000 -0.000000 -0.000000 -0.000000 -0.000000 -0.000000 -0.000000 -0.000000 -0.000000 -0.000000 -0.000000 -0.000000 -0.000000 -0.000000 -0.000000 -0.000000 -0.000000 -0.000000 -0.000000 -0.000000 -0.000000 -0.000000 -0.000000 -0.000000 -0.000000 -0.000000 -0.000000 -0.000000 -0.000000 -0.000000 -0.000000 -0.000000 -0.000000 -0.000000 -0.000000 -0.000000 -0.000000 -0.000000 -0.000000 -0.000000 -0.000000 -0.000000 -0.000000 -0.000000 -0.000000 -0.000000 -0.000000 -0.000000 -0.000000 -0.000000 -0.000000 -0.000000 -0.000000 -0.000000 -0.000000 -0.000000 -0.000000 -0.000000 -0.000000 -0.000000 -0.000000 -0.000000 -0.000000 -0.000000 -0.000000 -0.000000 -0.000000 -0.000000 -0.000000 -0.000000 -0.000000 -0.000000 -0.000000 -0.000000 -0.000000 -0.000000 -0.000000 -0.000000 -0.000000 -0.000000 -0.000000 -0.000000 -0.000000 -0.000000 -0.000000 -0.000000 -0.000000 -0.000000 -0.000000 -0.000000 -0.000000 -0.000000 -0.000000 -0.000000 -0.000000 -0.000000 -0.000000 -0.000000 -0.000000 -0.000000 -0.000000 -0.000000 -0.000000 -0.000000 -0.000000 -0.000000 -0.000000 -0.000000 -0.000000 -0.000000 -0.000000 -0.000000 -0.000000 -0.000000 -0.000000 -0.000000 -0.000000 -0.000000 -0.000000 -0.000000 -0.000000 -0.000000 -0.000000 -0.000000 -0.000000 -0.000000 -0.000000 -0.000000 -0.000000 -0.000000 -0.000000 -0.000000 -0.000000 -0.000000 -0.000000 -0.000000 -0.000000 -0.000000 -0.000000 -0.000000 -0.000000 -0.000000 -0.000000 -0.000000 -0.000000 -0.000000 -0.000000 -0.000000 -0.000000 -0.000000 -0.000000 -0.000000 -0.000000 -0.000000 -0.000000 -0.000000 -0.000000 -0.000000 -0.000000 -0.000000 -0.000000 -0.000000 -0.000000 -0.000000 -0.000000 -0.000000 -0.000000 -0.000000 -0.000000 -0.000000 -0.000000 -0.000000 -0.000000 -0.000000 -0.000000 -0.000000 -0.000000 -0.000000 -0.000000 -0.000000 -0.000000 -0.000000 -0.000000 -0.000000 -0.000000 -0.000000 -0.000000 -0.000000 -0.000000 -0.000000 -0.000000 -0.000000 -0.000000 -0.000000 -0.000000 -0.000000 -0.000000 -0.000000 -0.000000 -0.000000 -0.000000 -0.000000 -0.000000 -0.000000 -0.000000 -0.000000 -0.000000 -0.000000 -0.000000 -0.000000 -0.000000 -0.000000 -0.000000 -0.000000 -0.000000 -0.000000 -0.000000 -0.000000 -0.000000 -0.000000 -0.000000 -0.000000 -0.000000 -0.000000 -0.000000 -0.000000 -0.000000 -0.000000 -0.000000 -0.000000 -0.000000 -0.000000 -0.000000 -0.000000 -0.000000 -0.000000 -0.000000 -0.000000 -0.000000 -0.000000 -0.000000 -0.000000 -0.000000 -0.000000 -0.000000 -0.000000 -0.000000 -0.000000 -0.000000 -0.000000 -0.000000 -0.000000 -0.000000 -0.000000 -0.000000 -0.000000 -0.000000 -0.000000 -0.000000 -0.000000 -0.000000 -0.000000 -0.000000 -0.000000 -0.000000 -0.000000 -0.000000 -0.000000 -0.000000 -0.000000 -0.000000 -0.000000 -0.000000 -0.000000 -0.000000 -0.000000 -0.000000 -0.000000 -0.000000 -0.000000 -0.000000 -0.000000 -0.000000 -0.000000 -0.000000 -0.000000 -0.000000 -0.000000 -0.000000 -0.000000 -0.000000 -0.000000 -0.000000 -0.000000 -0.000000 -0.000000 -0.000000 -0.000000 -0.000000 -0.000000 -0.000000 -0.000000 -0.000000 -0.000000 -0.000000 -0.000000 -0.000000 -0.000000 -0.000000 -0.000000 -0.000000 -0.000000 -0.000000 -0.000000 -0.000000 -0.000000 -0.000000 -0.000000 -0.000000 -0.000000 -0.000000 -0.000000 -0.000000 -0.000000 -0.000000 -0.000000 -0.000000 -0.000000 -0.000000 -0.000000 -0.000000 -0.000000 -0.000000 -0.000000 -0.000000 -0.000000 -0.000000 -0.000000 -0.000000 -0.000000 -0.000000 -0.000000 -0.000000 -0.000000 -0.000000 -0.000000 -0.000000 -0.000000 -0.000000 -0.000000 -0.000000 -0.000000 -0.000000 -0.000000 -0.000000 -0.000000 -0.000000 -0.000000 -0.000000 -0.000000 -0.000000 -0.000000 -0.000000 -0.000000 -0.000000 -0.000000 -0.000000 -0.000000 -0.000000 -0.000000 -0.000000 -0.000000 -0.000000 -0.000000 -0.000000 -0.000000 -0.000000 -0.000000 -0.000000 -0.000000 -0.000000 -0.000000 -0.000000 -0.000000 -0.000000 -0.000000 -0.000000 -0.000000 -0.000000 -0.000000 -0.000000 -0.000000 -0.000000 -0.000000 -0.000000 -0.000000 -0.000000 -0.000000 -0.000000 -0.000000 -0.000000 -0.000000 -0.000000 -0.000000 -0.000000 -0.000000 -0.000000 -0.000000 -0.000000 -0.000000 -0.000000 -0.000000 -0.000000 -0.000000 -0.000000 -0.000000 -0.000000 -0.000000 -0.000000 -0.000000 -0.000000 -0.000000 -0.000000 -0.000000 -0.000000 -0.000000 -0.000000 -0.000000 -0.000000 -0.000000 -0.000000 -0.000000 -0.000000 -0.000000 -0.000000 -0.000000 -0.000000 -0.000000 -0.000000 -0.000000 -0.000000 -0.000000 -0.000000 -0.000000 -0.000000 -0.000000 -0.000000 -0.000000 -0.000000 -0.000000 -0.000000 -0.000000 -0.000000 -0.000000 -0.000000 -0.000000 -0.000000 -0.000000 -0.000000 -0.000000 -0.000000 -0.000000 -0.000000 -0.000000 -0.000000 -0.000000 -0.000000 -0.000000 -0.000000 -0.000000 -0.000000 -0.000000 -0.000000 -0.000000 -0.000000 -0.000000 -0.000000 -0.000000 -0.000000 -0.000000 -0.000000 -0.000000 -0.000000 -0.000000 -0.000000 -0.000000 -0.000000 -0.000000 -0.000000 -0.000000 -0.000000 -0.000000 -0.000000 -0.000000 -0.000000 -0.000000 -0.000000 -0.000000 -0.000000 -0.000000 -0.000000 -0.000000 -0.000000 -0.000000 -0.000000 -0.000000 -0.000000 -0.000000 -0.000000 -0.000000 -0.000000 -0.000000 -0.000000 -0.000000 -0.000000 -0.000000 -0.000000 -0.000000 -0.000000 -0.000000 -0.000000 -0.000000 -0.000000 -0.000000 -0.000000 -0.000000 -0.000000 -0.000000 -0.000000 -0.000000 -0.000000 -0.000000 -0.000000 -0.000000 -0.000000 -0.000000 -0.000000 -0.000000 -0.000000 -0.000000 -0.000000 -0.000000 -0.000000 -0.000000 -0.000000 -0.000000 -0.000000 -0.000000 -0.000000 -0.000000 -0.000000 -0.000000 -0.000000 -0.000000 -0.000000 -0.000000 -0.000000 -0.000000 -0.000000 -0.000000 -0.000000 -0.000000 -0.000000 -0.000000 -0.000000 -0.000000 -0.000000 -0.000000 -0.000000 -0.000000 -0.000000 -0.000000 -0.000000 -0.000000 -0.000000 -0.000000 -0.000000 -0.000000 -0.000000 -0.000000 -0.000000 -0.000000 -0.000000 -0.000000 -0.000000 -0.000000 -0.000000 -0.000000 -0.000000 -0.000000 -0.000000 -0.000000 -0.000000 -0.000000 -0.000000 -0.000000 -0.000000 -0.000000 -0.000000 -0.000000 -0.000000 -0.000000 -0.000000 -0.000000 -0.000000 -0.000000 -0.000000 -0.000000 -0.000000 -0.000000 -0.000000 -0.000000 -0.000000 -0.000000 -0.000000 -0.000000 -0.000000 -0.000000 -0.000000 -0.000000 -0.000000 -0.000000 -0.000000 -0.000000 -0.000000 -0.000000 -0.000000 -0.000000 -0.000000 -0.000000 -0.000000 -0.000000 -0.000000 -0.000000 -0.000000 -0.000000 -0.000000 -0.000000 -0.000000 -0.000000 -0.000000 -0.000000 -0.000000 -0.000000 -0.000000 -0.000000 -0.000000 -0.000000 -0.000000 -0.000000 -0.000000 -0.000000 -0.000000 -0.000000 -0.000000 -0.000000 -0.000000 -0.000000 -0.000000 -0.000000 -0.000000 -0.000000 -0.000000 -0.000000 -0.000000 -0.000000 -0.000000 -0.000000 -0.000000 -0.000000 -0.000000 -0.000000 -0.000000 -0.000000 -0.000000 -0.000000 -0.000000 -0.000000 -0.000000 -0.000000 -0.000000 -0.000000 -0.000000 -0.000000 -0.000000 -0.000000 -0.000000 -0.000000 -0.000000 -0.000000 -0.000000 -0.000000 -0.000000 -0.000000 -0.000000 -0.000000 -0.000000 -0.000000 -0.000000 -0.000000 -0.000000 -0.000000 -0.000000 -0.000000 -0.000000 -0.000000 -0.000000 -0.000000 -0.000000 -0.000000 -0.000000 -0.000000 -0.000000 -0.000000 -0.000000 -0.000000 -0.000000 -0.000000 -0.000000 -0.000000 -0.000000 -0.000000 -0.000000 -0.000000 -0.000000 -0.000000 -0.000000 -0.000000 -0.000000 -0.000000 -0.000000 -0.000000 -0.000000 -0.000000 -0.000000 -0.000000 -0.000000 -0.000000 -0.000000 -0.000000 -0.000000 -0.000000 -0.000000 -0.000000 -0.000000 -0.000000 -0.000000 -0.000000 -0.000000 -0.000000 -0.000000 -0.000000 -0.000000 -0.000000 -0.000000 -0.000000 -0.000000 -0.000000 -0.000000 -0.000000 -0.000000 -0.000000 -0.000000 -0.000000 -0.000000 -0.000000 -0.000000 -0.000000 -0.000000 -0.000000 -0.000000 -0.000000 -0.000000 -0.000000 -0.000000 -0.000000 -0.000000 -0.000000 -0.000000 -0.000000 -0.000000 -0.000000 -0.000000 -0.000000 -0.000000 -0.000000 -0.000000 -0.000000 -0.000000 -0.000000 -0.000000 -0.000000 -0.000000 -0.000000 -0.000000 -0.000000 -0.000000 -0.000000 -0.000000 -0.000000 -0.000000 -0.000000 -0.000000 -0.000000 -0.000000 -0.000000 -0.000000 -0.000000 -0.000000 -0.000000 -0.000000 -0.000000 -0.000000 -0.000000 -0.000000 -0.000000 -0.000000 -0.000000 -0.000000 -0.000001 -0.000001 -0.000001 -0.000001 -0.000001 -0.000001 -0.000001 -0.000001 -0.000001 -0.000001 -0.000001 -0.000001 -0.000001 -0.000001 -0.000001 -0.000001 -0.000001 -0.000001 -0.000002 -0.000002 -0.000002 -0.000002 -0.000002 -0.000002 -0.000002 -0.000002 -0.000002 -0.000002 -0.000003 -0.000003 -0.000003 -0.000003 -0.000003 -0.000003 -0.000004 -0.000006 -0.000004 -0.000004 -0.000004 -0.000004 -0.000005 -0.000010 -0.000016 -0.000026 -0.000035 -0.000047 -0.000060 -0.000075 -0.000091 -0.000108 -0.000121 -0.000127 -0.000119 -0.000084 -0.000005 0.000146 0.000410 0.000845 0.001537 0.002606 0.004222 0.006621 0.010129 0.015190 0.022407 0.032591 0.046824 0.066539 0.093623 0.130538 0.180484 0.247581 0.337110 0.455793 0.612130 0.816804 1.083164 1.427782 1.871113 2.438251 3.159807 4.072922 5.222576 6.664173 8.473963 10.806771 14.205580 20.933966 38.345006 76.968726 116.136041 118.448862 499.564140 3432.202363 9658.565113 -4325.668475 -11321.579887 -4139.146420 15238.942623 16439.844747 -2766.535572 -6589.485987 3360.413190 49036.986515 19612.515710 6031.686093 16788.278009 4107.127210 12990.353721 7083.514609 8504.573584 19757.678614 17976.463257 6636.370812 8948.009739 11914.622782 8412.544465 1535.182005 8269.340884 8782.405416 9546.515256 16871.153647 16643.723252 14571.459660 15123.453433 18102.637834 16669.334745 20033.619414 21430.354972 21779.902900 26174.680332 24756.459034 25177.637783 28343.534490 32668.357505 30213.064475 27925.425595 28689.017348 31390.522426 30876.726381 26404.745527 26738.100552 29812.860829 22681.687358 21086.173775 21086.173775 21086.173775 -0.000004 -0.000004 -0.000004 -0.000005 -0.000007 -0.000012 -0.000018 -0.000026 -0.000036 -0.000047 -0.000060 -0.000075 -0.000091 -0.000107 -0.000120 -0.000125 -0.000115 -0.000078 0.000005 0.000162 0.000434 0.000882 0.001591 0.002685 0.004336 0.006782 0.010355 0.015503 0.022839 0.033181 0.047623 0.067614 0.095057 0.132440 0.182988 0.250858 0.341371 0.461299 0.619201 0.825832 1.094621 1.442240 1.889253 2.460883 3.187889 4.107579 5.265124 6.716052 8.535431 10.864221 14.138883 20.023728 33.751232 64.061351 108.371425 171.250475 451.253312 1398.350583 2140.748847 -156.165532 -3056.347909 -3205.440038 -370.462177 2613.983274 2397.226956 1784.420585 5335.332571 16201.541735 10793.694197 5393.700608 9599.598108 7637.520424 8603.738764 6718.651632 8364.074721 11691.348856 11466.069263 9736.107796 10530.790699 12082.305998 12220.213056 10847.010018 12265.083853 12964.522383 13256.016958 15680.796804 15521.627608 13814.015783 12972.602770 15135.590847 16355.824511 17674.796891 18310.293133 19324.168234 21693.153545 21704.743607 23802.848852 27283.722407 31539.871240 29179.930217 27082.558708 26795.825834 27887.514959 25451.386890 21961.060719 20336.937997 21921.960065 20215.420000 19731.537068 19731.537068 19731.537068 -0.000005 -0.000005 -0.000005 -0.000005 -0.000007 -0.000013 -0.000019 -0.000027 -0.000036 -0.000048 -0.000061 -0.000076 -0.000091 -0.000107 -0.000119 -0.000123 -0.000111 -0.000071 0.000017 0.000181 0.000463 0.000925 0.001655 0.002777 0.004468 0.006969 0.010616 0.015867 0.023339 0.033863 0.048547 0.068856 0.096715 0.134637 0.185881 0.254641 0.346289 0.467651 0.627355 0.836239 1.107825 1.458895 1.910144 2.486940 3.220211 4.147464 5.314121 6.776046 8.608069 10.941230 14.119828 19.252876 29.557376 51.658886 94.298463 173.322600 343.468394 682.529699 1061.393265 1044.134015 619.902610 322.978637 427.844806 875.405256 1377.270830 2086.734642 3643.900026 6151.086596 7354.105049 7585.649319 7845.317107 8148.878641 8690.884234 9279.624467 9867.515926 10432.997556 10763.498785 11020.267776 11521.384030 12154.694382 12626.179665 12978.969725 13415.005398 13761.438370 14080.612930 14507.773324 14819.159955 14988.758869 15292.646675 16077.466396 16950.164822 17778.167029 18457.718482 19172.203326 19977.377762 20579.280917 21474.771634 22599.257026 23695.807900 23396.611500 23042.754091 22792.596708 22842.580207 22213.481561 21576.102788 20635.845055 19895.019444 19089.852082 18907.707099 18907.707099 18907.707099 -0.000005 -0.000005 -0.000005 -0.000005 -0.000007 -0.000013 -0.000019 -0.000027 -0.000036 -0.000048 -0.000061 -0.000076 -0.000091 -0.000107 -0.000119 -0.000123 -0.000110 -0.000069 0.000019 0.000185 0.000469 0.000933 0.001667 0.002794 0.004491 0.007003 0.010664 0.015932 0.023429 0.033986 0.048714 0.069080 0.097014 0.135033 0.186402 0.255323 0.347174 0.468794 0.628823 0.838112 1.110201 1.461892 1.913901 2.491626 3.226023 4.154636 5.322935 6.786872 8.621374 10.956440 14.123422 19.146891 28.926244 49.703058 91.321198 170.233844 323.866892 599.118679 940.202162 1126.069639 1031.931050 825.387886 734.935211 881.594141 1280.537692 2005.167509 3279.110016 5082.963102 6570.145344 7190.551525 7555.501872 8017.911959 8658.768294 9334.560086 9918.472878 10383.823197 10746.326479 11111.362772 11579.548276 12102.898539 12569.048179 12972.792094 13358.353057 13692.096305 14017.977422 14403.303263 14786.632988 15148.499287 15617.136600 16303.510915 17087.157303 17846.238534 18539.083641 19199.959129 19847.740439 20459.990026 21121.771491 21854.419331 22427.658127 22553.575644 22422.166148 22283.315517 22126.007159 21817.434528 21321.309028 20617.430642 19661.046848 18929.164469 18789.592658 18789.592658 18789.592658 -0.000005 -0.000005 -0.000005 -0.000005 -0.000007 -0.000013 -0.000019 -0.000027 -0.000036 -0.000048 -0.000061 -0.000076 -0.000091 -0.000107 -0.000119 -0.000123 -0.000110 -0.000069 0.000019 0.000185 0.000469 0.000933 0.001667 0.002794 0.004491 0.007003 0.010664 0.015932 0.023429 0.033986 0.048714 0.069080 0.097014 0.135033 0.186402 0.255323 0.347174 0.468794 0.628823 0.838112 1.110201 1.461892 1.913901 2.491626 3.226023 4.154636 5.322935 6.786872 8.621374 10.956440 14.123422 19.146891 28.926244 49.703058 91.321198 170.233844 323.866892 599.118679 940.202162 1126.069639 1031.931050 825.387886 734.935211 881.594141 1280.537692 2005.167509 3279.110016 5082.963102 6570.145344 7190.551525 7555.501872 8017.911959 8658.768294 9334.560086 9918.472878 10383.823197 10746.326479 11111.362772 11579.548276 12102.898539 12569.048179 12972.792094 13358.353057 13692.096305 14017.977422 14403.303263 14786.632988 15148.499287 15617.136600 16303.510915 17087.157303 17846.238534 18539.083641 19199.959129 19847.740439 20459.990026 21121.771491 21854.419331 22427.658127 22553.575644 22422.166148 22283.315517 22126.007159 21817.434528 21321.309028 20617.430642 19661.046848 18929.164469 18789.592658 18789.592658 18789.592658 -0.000005 -0.000005 -0.000005 -0.000005 -0.000007 -0.000013 -0.000019 -0.000027 -0.000036 -0.000048 -0.000061 -0.000076 -0.000091 -0.000107 -0.000119 -0.000123 -0.000110 -0.000069 0.000019 0.000185 0.000469 0.000933 0.001667 0.002794 0.004491 0.007003 0.010664 0.015932 0.023429 0.033986 0.048714 0.069080 0.097014 0.135033 0.186402 0.255323 0.347174 0.468794 0.628823 0.838112 1.110201 1.461892 1.913901 2.491626 3.226023 4.154636 5.322935 6.786872 8.621374 10.956440 14.123422 19.146891 28.926244 49.703058 91.321198 170.233844 323.866892 599.118679 940.202162 1126.069639 1031.931050 825.387886 734.935211 881.594141 1280.537692 2005.167509 3279.110016 5082.963102 6570.145344 7190.551525 7555.501872 8017.911959 8658.768294 9334.560086 9918.472878 10383.823197 10746.326479 11111.362772 11579.548276 12102.898539 12569.048179 12972.792094 13358.353057 13692.096305 14017.977422 14403.303263 14786.632988 15148.499287 15617.136600 16303.510915 17087.157303 17846.238534 18539.083641 19199.959129 19847.740439 20459.990026 21121.771491 21854.419331 22427.658127 22553.575644 22422.166148 22283.315517 22126.007159 21817.434528 21321.309028 20617.430642 19661.046848 18929.164469 18789.592658 18789.592658 18789.592658 -1368.605042 -1487.811980 -1675.483992 -1979.322130 -2508.034792 -1947.664322 -147.342619 -398.919730 -1530.650035 -1104.051498 792.358123 600.741925 -305.548476 -1157.193522 -1297.610756 729.893070 1164.691421 -108.502809 -1401.908792 -1281.672174 1262.494414 1085.261698 -673.936584 -2125.109657 -20.537283 2286.312182 926.950526 -426.726696 -1957.717598 -927.941316 2304.152404 1765.183512 553.013850 -597.258160 -2409.305799 -1698.955167 3880.282565 8299.967589 9141.613299 10523.427538 10200.859167 11835.854881 7873.577674 9362.012132 11001.232910 10722.833773 10816.935822 10968.509799 11794.663787 12983.443847 13718.862434 12649.173268 10951.073071 10784.664527 10784.664527 10784.664527 -1028.824508 -595.850173 -106.666775 16259.507119 14053.755776 12534.233692 12016.960795 13633.335790 14064.972720 12795.800742 15376.553383 13697.196192 14839.902509 13491.373542 9935.526238 14464.808104 11943.013642 16096.615934 16359.822198 14165.606561 13757.261390 13935.653971 10750.161276 10261.314387 11774.530060 9621.823574 16000.440691 9900.151770 9325.503517 12791.914247 13761.626070 12854.665440 12902.411596 12632.611657 14259.628434 12701.090906 12275.705585 11947.906442 15617.017480 14348.060460 12451.017352 14593.511669 11169.461673 12940.542140 14416.742242 13180.814682 11919.025971 13655.114644 9982.203675 12029.818096 14905.482647 14840.372493 11477.827265 11012.292977 11012.292977 11012.292977 125.181438 83.483472 13751.081929 3300.210718 14441.445133 13428.798876 14558.758574 12780.305760 11806.748046 11164.561567 14864.259920 11571.888609 15537.848380 11503.203048 11096.685739 12760.551083 9844.525812 13764.434974 14518.136597 12612.337768 12106.971672 13863.056804 8766.697803 14073.383988 10437.310583 9294.286182 10881.376295 10227.240915 9914.428657 10147.062300 8283.527780 9317.654344 12073.879322 11305.299945 14161.514794 8679.639114 8368.227717 8461.933463 8912.619099 11565.008229 7998.922505 9660.943545 7984.784359 12130.451765 7894.434755 10657.056753 10201.896923 13260.028457 7897.326561 13221.228179 12886.965373 15829.267190 11851.693932 11330.997187 11330.997187 11330.997187 -251.735488 5680.322501 18246.341052 13978.854432 14897.598223 11046.484912 15483.884903 14795.030237 14506.853091 15172.267273 14399.722101 12288.277365 13859.857458 10541.286870 11332.499021 13293.162777 14866.676661 12486.230277 14270.582903 14921.218378 14517.697580 12266.828244 9655.352545 12168.059411 11830.468052 10864.007838 14202.788994 11189.945952 12883.621906 11341.593566 14075.861114 10351.034016 9969.280410 10293.772147 13017.752272 7006.781377 11414.627433 9301.513633 10883.601266 8105.317135 7334.560148 7261.802875 7785.311683 12470.827337 6026.794398 12270.844689 13375.751548 9623.7139