<VTKFile type="PolyData">
<PolyData>
<Piece NumberOfPoints="8632" NumberOfVerts="8632" NumberOfLines="0" NumberOfStrips="0" NumberOfPolys="0">
<PointData>
<DataArray type="Float64" Name="Pressure" format="ascii">
 -0.000972 -0.000972 -0.000972 -0.001045 -0.001892 -0.004264 -0.007465 -0.012057 -0.018723 -0.028432 -0.042566 -0.063053 -0.092559 -0.134743 -0.194574 -0.278743 -0.396166 -0.558609 -0.781434 -1.084490 -1.493142 -2.039451 -2.763476 -3.714691 -4.953464 -6.552542 -8.598469 -11.192830 -14.453220 -18.513799 -23.525318 -29.654501 -37.082710 -46.003856 -56.621635 -69.146222 -83.790721 -100.767760 -120.286728 -142.552217 -167.764180 -196.120180 -227.819819 -263.070946 -302.096695 -345.141638 -392.474618 -444.384945 -501.167448 -563.089196 -630.323615 -702.818705 -780.018437 -860.256184 -939.448221 -1009.247863 -1056.322687 -1061.046678 -992.456602 -839.165043 -666.227825 -534.123291 -408.388812 -259.892342 -155.519857 -143.262776 -167.520646 -147.671020 -69.075919 -10.918949 -7.712601 14.145507 103.692159 196.957856 251.843046 332.393828 460.168722 557.259043 600.284443 658.272015 812.081525 1069.587383 1346.682677 1603.486925 1908.683698 2347.624970 2903.665636 3502.594910 4180.198687 4961.421726 5768.297132 6565.907698 7366.740497 8147.555088 8866.382679 9542.678444 10200.520788 10805.961015 11341.380584 11832.542943 12301.909042 12735.308301 13120.786852 13475.365129 13838.773269 14247.536344 14682.988344 14985.752312 15043.485027 15043.485027 15043.485027 -0.000972 -0.000972 -0.000972 -0.001045 -0.001892 -0.004264 -0.007465 -0.012057 -0.018723 -0.028432 -0.042566 -0.063053 -0.092559 -0.134743 -0.194574 -0.278743 -0.396166 -0.558609 -0.781434 -1.084490 -1.493142 -2.039451 -2.763476 -3.714691 -4.953464 -6.552542 -8.598469 -11.192830 -14.453220 -18.513799 -23.525318 -29.654501 -37.082710 -46.003856 -56.621635 -69.146222 -83.790721 -100.767760 -120.286728 -142.552217 -167.764180 -196.120180 -227.819819 -263.070946 -302.096695 -345.141638 -392.474618 -444.384945 -501.167448 -563.089196 -630.323615 -702.818705 -780.018437 -860.256184 -939.448221 -1009.247863 -1056.322687 -1061.046678 -992.456602 -839.165043 -666.227825 -534.123291 -408.388812 -259.892342 -155.519857 -143.262776 -167.520646 -147.671020 -69.075919 -10.918949 -7.712601 14.145507 103.692159 196.957856 251.843046 332.393828 460.168722 557.259043 600.284443 658.272015 812.081525 1069.587383 1346.682677 1603.486925 1908.683698 2347.624970 2903.665636 3502.594910 4180.198687 4961.421726 5768.297132 6565.907698 7366.740497 8147.555088 8866.382679 9542.678444 10200.520788 10805.961015 11341.380584 11832.542943 12301.909042 12735.308301 13120.786852 13475.365129 13838.773269 14247.536344 14682.988344 14985.752312 15043.485027 15043.485027 15043.485027 -0.000972 -0.000972 -0.000972 -0.001045 -0.001892 -0.004264 -0.007465 -0.012057 -0.018723 -0.028432 -0.042566 -0.063053 -0.092559 -0.134743 -0.194574 -0.278743 -0.396166 -0.558609 -0.781434 -1.084490 -1.493142 -2.039451 -2.763476 -3.714691 -4.953464 -6.552542 -8.598469 -11.192830 -14.453220 -18.513799 -23.525318 -29.654501 -37.082710 -46.003856 -56.621635 -69.146222 -83.790721 -100.767760 -120.286728 -142.552217 -167.764180 -196.120180 -227.819819 -263.070946 -302.096695 -345.141638 -392.474618 -444.384945 -501.167448 -563.089196 -630.323615 -702.818705 -780.018437 -860.256184 -939.448221 -1009.247863 -1056.322687 -1061.046678 -992.456602 -839.165043 -666.227825 -534.123291 -408.388812 -259.892342 -155.519857 -143.262776 -167.520646 -147.671020 -69.075919 -10.918949 -7.712601 14.145507 103.692159 196.957856 251.843046 332.393828 460.168722 557.259043 600.284443 658.272015 812.081525 1069.587383 1346.682677 1603.486925 1908.683698 2347.624970 2903.665636 3502.594910 4180.198687 4961.421726 5768.297132 6565.907698 7366.740497 8147.555088 8866.382679 9542.678444 10200.520788 10805.961015 11341.380584 11832.542943 12301.909042 12735.308301 13120.786852 13475.365129 13838.773269 14247.536344 14682.988344 14985.752312 15043.485027 15043.485027 15043.485027 -0.000960 -0.000960 -0.000960 -0.001031 -0.001869 -0.004217 -0.007412 -0.012010 -0.018673 -0.028369 -0.042478 -0.062929 -0.092385 -0.134500 -0.194239 -0.278284 -0.395544 -0.557774 -0.780323 -1.083025 -1.491230 -2.036978 -2.760310 -3.710678 -4.948429 -6.546288 -8.590783 -11.183484 -14.441977 -18.500421 -23.509576 -29.636183 -37.061633 -45.979879 -56.594662 -69.116209 -83.757673 -100.731722 -120.247771 -142.510412 -167.719568 -196.072748 -227.769480 -263.017565 -302.040173 -345.082168 -392.413285 -444.325166 -501.118418 -563.074289 -630.401025 -703.131853 -780.914717 -862.540860 -944.554464 -1019.111516 -1073.149578 -1087.813570 -1022.811188 -850.642593 -646.606043 -533.024270 -422.229994 -245.055696 -122.874492 -131.415005 -184.589653 -171.521076 -62.948012 7.519528 -16.689965 -14.730041 98.825784 208.740901 238.215712 309.809132 468.655627 575.018314 592.275620 618.024448 763.627610 1048.169968 1332.183295 1551.506897 1809.061505 2241.065738 2820.737196 3396.214800 4058.532203 4883.078788 5710.356934 6500.942948 7301.854202 8101.901940 8803.553053 9433.111356 10074.496749 10671.294371 11191.529823 11667.036402 12142.199700 12583.324896 12958.755419 13282.657237 13622.629582 14067.808917 14594.485412 14966.180815 15035.224432 15035.224432 15035.224432 -0.000838 -0.000838 -0.000838 -0.000892 -0.001590 -0.003600 -0.006750 -0.011520 -0.018179 -0.027739 -0.041604 -0.061696 -0.090652 -0.132085 -0.190902 -0.273717 -0.389350 -0.549450 -0.769243 -1.068417 -1.472154 -2.012309 -2.728721 -3.670631 -4.898170 -6.483860 -8.514045 -11.090153 -14.329683 -18.366784 -23.352294 -29.453142 -36.851009 -45.740241 -56.325053 -68.816187 -83.427294 -100.371453 -119.858325 -142.092503 -167.273625 -195.598636 -227.266348 -262.484012 -301.475141 -344.487369 -391.799095 -443.724595 -500.620619 -562.906235 -631.128707 -706.156792 -789.687362 -885.302088 -1000.767131 -1131.194318 -1261.400386 -1403.068563 -1544.561471 -1037.314096 -334.109724 -526.940384 -749.083193 -60.676817 438.061399 17.845340 -427.416222 -643.828687 73.289600 418.110870 -141.188758 -558.211131 61.804271 556.715725 15.901297 -159.782643 677.906573 904.225295 513.323500 94.891697 28.222360 867.618062 1311.100161 961.947356 528.240507 815.811806 2090.827110 2189.048317 2468.108429 4059.498478 5233.253627 5788.829365 6427.886986 7591.550798 8115.776110 7952.043215 8334.363541 8888.845938 9295.464820 9572.476286 10181.525651 10870.505002 11246.441467 11202.281560 11031.579620 11814.840706 13482.652295 14746.893352 14955.916078 14955.916078 14955.916078 -0.000678 -0.000678 -0.000678 -0.000718 -0.001195 -0.002545 -0.005388 -0.010792 -0.017588 -0.027023 -0.040622 -0.060315 -0.088712 -0.129378 -0.187160 -0.268590 -0.382390 -0.540091 -0.756776 -1.051966 -1.450654 -1.984485 -2.693066 -3.625396 -4.841361 -6.413249 -8.427192 -10.984454 -14.202432 -18.215258 -23.173862 -29.245380 -36.611827 -45.468000 -56.018659 -68.475137 -83.051668 -99.961813 -119.415524 -141.617415 -166.766815 -195.060056 -226.695193 -261.879022 -300.835890 -343.817771 -391.115963 -443.078193 -500.144428 -562.939039 -632.517392 -711.015447 -803.337182 -921.550529 -1097.483566 -1289.931398 -1491.798261 -1831.716295 -2294.932048 -1230.963364 198.795332 -544.413590 -1366.760118 131.874320 1326.304125 269.673115 -886.676241 -1616.273578 303.565087 1334.150226 -383.374951 -1841.613480 34.958994 1645.460493 -540.105808 -1387.983525 1386.800362 1811.776269 433.771082 -875.345152 -1604.339848 919.389540 1876.778581 267.466854 -1851.193528 -1915.649465 2253.829120 799.168924 -1729.359436 3323.913537 4790.441098 4994.891021 3272.577366 6246.136704 7988.849755 4391.740051 4450.596330 5960.521654 6179.264214 5783.592906 6876.744831 8451.537483 10256.634246 10112.489299 8245.319247 8119.358045 11735.690113 14555.115241 14899.788956 14899.788956 14899.788956 -0.000657 -0.000657 -0.000657 -0.000696 -0.001144 -0.002383 -0.000530 -0.000530 -0.000530 -0.000554 -0.000832 -0.001464 -0.000361 -0.000361 -0.000361 -0.000372 -0.000481 -0.000666 -0.000236 -0.000236 -0.000236 -0.000240 -0.000277 -0.000337 -0.000150 -0.000150 -0.000150 -0.000151 -0.000163 -0.000181 -0.000094 -0.000094 -0.000094 -0.000094 -0.000097 -0.000102 -0.000058 -0.000058 -0.000058 -0.000058 -0.000058 -0.000059 -0.000035 -0.000035 -0.000035 -0.000035 -0.000035 -0.000035 -0.000021 -0.000021 -0.000021 -0.000021 -0.000021 -0.000020 -0.000013 -0.000013 -0.000013 -0.000013 -0.000012 -0.000012 -0.000008 -0.000008 -0.000008 -0.000008 -0.000007 -0.000007 -0.000004 -0.000004 -0.000004 -0.000004 -0.000004 -0.000004 -0.000003 -0.000003 -0.000003 -0.000003 -0.000003 -0.000002 -0.000002 -0.000002 -0.000002 -0.000002 -0.000001 -0.000001 -0.000001 -0.000001 -0.000001 -0.000001 -0.000001 -0.000001 -0.000000 -0.000000 -0.000000 -0.000000 -0.000000 -0.000000 -0.000000 -0.000000 -0.000000 -0.000000 -0.000000 -0.000000 -0.000000 -0.000000 -0.000000 -0.000000 -0.000000 -0.000000 -0.000000 -0.000000 -0.000000 -0.000000 -0.000000 -0.000000 -0.000000 -0.000000 -0.000000 -0.000000 -0.000000 -0.000000 -0.000000 -0.000000 -0.000000 -0.000000 -0.000000 -0.000000 -0.000000 -0.000000 -0.000000 -0.000000 -0.000000 -0.000000 -0.000000 -0.000000 -0.000000 -0.000000 -0.000000 -0.000000 -0.000000 -0.000000 -0.000000 -0.000000 -0.000000 -0.000000 -0.000000 -0.000000 -0.000000 -0.000000 -0.000000 -0.000000 -0.000000 -0.000000 -0.000000 -0.000000 -0.000000 -0.000000 -0.000000 -0.000000 -0.000000 -0.000000 0.000000 -0.000000 0.000000 0.000000 0.000000 -0.000000 0.000000 0.000000 0.000000 0.000000 0.000000 -0.000000 0.000000 0.000000 0.000000 0.000000 0.000000 -0.000000 0.000000 0.000000 0.000000 0.000000 0.000000 -0.000000 0.000000 0.000000 0.000000 0.000000 0.000000 -0.000000 0.000000 0.000000 0.000000 0.000000 0.000000 -0.000000 0.000000 0.000000 0.000000 0.000000 0.000000 -0.000000 0.000000 0.000000 0.000000 0.000000 0.000000 -0.000000 0.000000 0.000000 0.000000 0.000000 0.000000 -0.000000 0.000000 0.000000 0.000000 0.000000 0.000000 -0.000000 0.000000 0.000000 0.000000 0.000000 0.000000 -0.000000 0.000000 0.000000 0.000000 0.000000 0.000000 0.000000 0.000000 0.000000 0.000000 0.000000 0.000000 -0.000000 -0.000000 0.000000 -0.000000 -0.000000 -0.000000 -0.000000 -0.000000 -0.000000 -0.000000 -0.000000 -0.000000 -0.000000 -0.000000 -0.000000 -0.000000 -0.000000 -0.000000 -0.000000 -0.000000 -0.000000 -0.000000 -0.000000 -0.000000 -0.000000 -0.000000 -0.000000 -0.000000 -0.000000 -0.000000 -0.000000 -0.000000 -0.000000 -0.000000 -0.000000 -0.000000 -0.000000 -0.000000 -0.000000 -0.000000 -0.000000 -0.000000 -0.000000 -0.000000 -0.000000 -0.000000 -0.000000 -0.000000 -0.000000 -0.000000 -0.000000 -0.000000 -0.000000 -0.000000 -0.000000 -0.000000 -0.000000 -0.000000 -0.000000 -0.000000 -0.000000 -0.000000 -0.000000 -0.000000 -0.000000 -0.000000 -0.000000 -0.000000 -0.000000 -0.000000 -0.000000 -0.000000 -0.000000 -0.000000 -0.000000 -0.000000 -0.000000 -0.000000 -0.000000 -0.000000 -0.000000 -0.000000 -0.000000 -0.000000 -0.000000 -0.000000 -0.000000 -0.000000 -0.000000 -0.000000 -0.000000 -0.000000 -0.000000 -0.000000 -0.000000 -0.000000 -0.000000 -0.000000 -0.000000 -0.000000 -0.000000 -0.000000 -0.000000 -0.000000 -0.000000 -0.000000 -0.000000 -0.000000 -0.000000 -0.000000 -0.000000 -0.000000 -0.000000 -0.000000 -0.000000 -0.000000 -0.000000 -0.000000 -0.000000 -0.000000 -0.000000 -0.000000 -0.000000 -0.000000 -0.000000 -0.000000 -0.000000 -0.000000 -0.000000 -0.000000 -0.000000 -0.000000 -0.000000 -0.000000 -0.000000 -0.000000 -0.000000 -0.000000 -0.000000 -0.000000 -0.000000 -0.000000 -0.000000 -0.000000 -0.000000 -0.000000 -0.000000 -0.000000 -0.000000 -0.000000 -0.000000 -0.000000 -0.000000 -0.000000 -0.000000 -0.000000 -0.000000 -0.000000 -0.000000 -0.000000 -0.000000 -0.000000 -0.000000 -0.000000 -0.000000 -0.000000 -0.000000 -0.000000 -0.000000 -0.000000 -0.000000 -0.000000 -0.000000 -0.000000 -0.000000 -0.000000 -0.000000 -0.000000 -0.000000 -0.000000 -0.000000 -0.000000 -0.000000 -0.000000 -0.000000 -0.000000 -0.000000 -0.000000 -0.000000 -0.000000 -0.000000 -0.000000 -0.000000 -0.000000 -0.000000 -0.000000 -0.000000 -0.000000 -0.000000 -0.000000 -0.000000 -0.000000 -0.000000 -0.000000 -0.000000 -0.000000 -0.000000 -0.000000 -0.000000 -0.000000 -0.000000 -0.000000 -0.000000 -0.000000 -0.000000 -0.000000 -0.000000 -0.000000 -0.000000 -0.000000 -0.000000 -0.000000 -0.000000 -0.000000 -0.000000 -0.000000 -0.000000 -0.000000 -0.000000 -0.000000 -0.000000 -0.000000 -0.000000 -0.000000 -0.000000 -0.000000 -0.000000 -0.000000 -0.000000 -0.000000 -0.000000 -0.000000 -0.000000 -0.000000 -0.000000 -0.000000 -0.000000 -0.000000 -0.000000 -0.000000 -0.000000 -0.000000 -0.000000 -0.000000 -0.000000 -0.000000 -0.000000 -0.000000 -0.000000 -0.000000 -0.000000 -0.000000 -0.000000 -0.000000 -0.000000 -0.000000 -0.000000 -0.000000 -0.000000 -0.000000 -0.000000 -0.000000 -0.000000 -0.000000 -0.000000 -0.000000 -0.000000 -0.000000 -0.000000 -0.000000 -0.000000 -0.000000 -0.000000 -0.000000 -0.000000 -0.000000 -0.000000 -0.000000 -0.000000 -0.000000 -0.000000 -0.000000 -0.000000 -0.000000 -0.000000 -0.000000 -0.000000 -0.000000 -0.000000 -0.000000 -0.000000 -0.000000 -0.000000 -0.000000 -0.000000 -0.000000 -0.000000 -0.000000 -0.000000 -0.000000 -0.000000 -0.000000 -0.000000 -0.000000 -0.000000 -0.000000 -0.000000 -0.000000 -0.000000 -0.000000 -0.000000 -0.000000 -0.000000 -0.000000 -0.000000 -0.000000 -0.000000 -0.000000 -0.000000 -0.000000 -0.000000 -0.000000 -0.000000 -0.000000 -0.000000 -0.000000 -0.000000 -0.000000 -0.000000 -0.000000 -0.000000 -0.000000 -0.000000 -0.000000 -0.000000 -0.000000 -0.000000 -0.000000 -0.000000 -0.000000 -0.000000 -0.000000 -0.000000 -0.000000 -0.000000 -0.000000 -0.000000 -0.000000 -0.000000 -0.000000 -0.000000 -0.000000 -0.000000 -0.000000 -0.000000 -0.000000 -0.000000 -0.000000 -0.000000 -0.000000 -0.000000 -0.000000 -0.000000 -0.000000 -0.000000 -0.000000 -0.000000 -0.000000 -0.000000 -0.000000 -0.000000 -0.000000 -0.000000 -0.000000 -0.000000 -0.000000 -0.000000 -0.000000 -0.000000 -0.000000 -0.000000 -0.000000 -0.000000 -0.000000 -0.000000 -0.000000 -0.000000 -0.000000 -0.000000 -0.000000 -0.000000 -0.000000 -0.000000 -0.000000 -0.000000 -0.000000 -0.000000 -0.000000 -0.000000 -0.000000 -0.000000 -0.000000 -0.000000 -0.000000 -0.000000 -0.000000 -0.000000 -0.000000 -0.000000 -0.000000 -0.000000 -0.000000 -0.000000 -0.000000 -0.000000 -0.000000 -0.000000 -0.000000 -0.000000 -0.000000 -0.000000 -0.000000 -0.000000 -0.000000 -0.000000 -0.000000 -0.000000 -0.000000 -0.000000 -0.000000 -0.000000 -0.000000 -0.000000 -0.000000 -0.000000 -0.000000 -0.000000 -0.000000 -0.000000 -0.000000 -0.000000 -0.000000 -0.000000 -0.000000 -0.000000 -0.000000 -0.000000 -0.000000 -0.000000 -0.000000 -0.000000 -0.000000 -0.000000 -0.000000 -0.000000 -0.000000 -0.000000 -0.000000 -0.000000 -0.000000 -0.000000 -0.000000 -0.000000 -0.000000 -0.000000 -0.000000 -0.000000 -0.000000 -0.000000 -0.000000 -0.000000 -0.000000 -0.000000 -0.000000 -0.000000 -0.000000 -0.000000 -0.000000 -0.000000 -0.000000 -0.000000 -0.000000 -0.000000 -0.000000 -0.000000 -0.000000 -0.000000 -0.000000 -0.000000 -0.000000 -0.000000 -0.000000 -0.000000 -0.000000 -0.000000 -0.000000 -0.000000 -0.000000 -0.000000 -0.000000 -0.000000 -0.000000 -0.000000 -0.000000 -0.000000 -0.000000 -0.000000 -0.000000 -0.000000 -0.000000 -0.000000 -0.000000 -0.000000 -0.000000 -0.000000 -0.000000 -0.000000 -0.000000 -0.000000 -0.000000 -0.000000 -0.000000 -0.000000 -0.000000 -0.000000 -0.000000 -0.000000 -0.000000 -0.000000 -0.000000 -0.000000 -0.000000 -0.000000 -0.000000 -0.000000 -0.000000 -0.000000 -0.000000 -0.000000 -0.000000 -0.000000 -0.000000 -0.000000 -0.000000 -0.000000 -0.000000 -0.000000 -0.000000 -0.000000 -0.000000 -0.000000 -0.000000 -0.000000 -0.000000 -0.000000 -0.000000 -0.000000 -0.000000 -0.000000 -0.000000 -0.000000 -0.000000 -0.000000 -0.000000 -0.000000 -0.000000 -0.000000 -0.000000 -0.000000 -0.000000 -0.000000 -0.000000 -0.000000 -0.000000 -0.000000 -0.000000 -0.000000 -0.000000 -0.000000 -0.000000 -0.000000 -0.000000 -0.000000 -0.000000 -0.000000 -0.000000 -0.000000 -0.000000 -0.000000 -0.000000 -0.000000 -0.000000 -0.000000 -0.000000 -0.000000 -0.000000 -0.000000 -0.000000 -0.000000 -0.000000 -0.000000 -0.000000 -0.000000 -0.000000 -0.000000 -0.000000 -0.000000 -0.000000 -0.000000 -0.000000 -0.000000 -0.000000 -0.000000 -0.000000 -0.000000 -0.000000 -0.000000 -0.000000 -0.000000 -0.000000 -0.000000 -0.000000 -0.000000 -0.000000 -0.000000 -0.000000 -0.000000 -0.000000 -0.000000 -0.000000 -0.000000 -0.000000 -0.000000 -0.000000 -0.000000 -0.000000 -0.000000 -0.000000 -0.000000 -0.000000 -0.000000 -0.000000 -0.000000 -0.000000 -0.000000 -0.000000 -0.000000 -0.000000 -0.000000 -0.000000 -0.000000 -0.000000 -0.000000 -0.000000 -0.000000 -0.000000 -0.000000 -0.000000 -0.000000 -0.000000 -0.000000 -0.000000 -0.000000 -0.000000 -0.000000 -0.000000 -0.000000 -0.000000 -0.000000 -0.000000 -0.000000 -0.000000 -0.000000 -0.000000 -0.000000 -0.000000 -0.000000 -0.000000 -0.000000 -0.000000 -0.000000 -0.000000 -0.000000 -0.000000 -0.000000 -0.000000 -0.000000 -0.000000 -0.000000 -0.000000 -0.000000 -0.000000 -0.000000 -0.000000 -0.000000 -0.000000 -0.000000 -0.000000 -0.000000 -0.000000 -0.000000 -0.000000 -0.000000 -0.000000 -0.000000 -0.000000 -0.000000 -0.000000 -0.000000 -0.000000 -0.000000 -0.000000 -0.000000 -0.000000 -0.000000 -0.000000 -0.000000 0.000000 -0.000000 -0.000000 -0.000000 -0.000000 -0.000000 -0.000000 -0.000000 -0.000000 -0.000000 -0.000000 -0.000000 -0.000000 -0.000000 -0.000000 -0.000000 -0.000000 -0.000000 -0.000000 -0.000000 -0.000000 -0.000000 -0.000000 -0.000000 -0.000000 -0.000000 -0.000000 -0.000000 -0.000000 -0.000000 -0.000000 -0.000000 -0.000000 -0.000000 -0.000000 -0.000000 -0.000000 -0.000000 -0.000000 -0.000000 -0.000000 -0.000000 -0.000000 -0.000000 -0.000000 -0.000000 -0.000000 -0.000000 -0.000000 -0.000000 -0.000000 -0.000000 -0.000000 -0.000000 -0.000000 -0.000000 -0.000000 -0.000000 -0.000000 -0.000000 -0.000000 -0.000000 -0.000000 -0.000000 -0.000000 -0.000000 -0.000000 -0.000000 -0.000000 -0.000000 -0.000000 -0.000000 -0.000000 -0.000000 -0.000000 -0.000000 -0.000000 -0.000000 -0.000000 -0.000000 -0.000000 -0.000000 -0.000000 -0.000000 -0.000000 -0.000000 -0.000000 -0.000000 -0.000000 -0.000000 -0.000000 -0.000000 -0.000000 -0.000000 -0.000000 -0.000000 -0.000000 -0.000000 -0.000000 -0.000000 -0.000000 -0.000000 -0.000000 -0.000000 -0.000000 -0.000000 -0.000000 -0.000000 -0.000000 -0.000000 -0.000000 -0.000000 -0.000000 -0.000000 -0.000000 -0.000000 -0.000000 -0.000000 -0.000000 -0.000000 -0.000000 -0.000000 -0.000000 -0.000000 -0.000000 -0.000000 -0.000000 -0.000000 -0.000000 -0.000000 -0.000000 -0.000000 -0.000000 -0.000000 -0.000000 -0.000000 -0.000000 -0.000000 -0.000000 -0.000000 -0.000000 -0.000000 -0.000000 -0.000000 -0.000000 -0.000000 -0.000000 -0.000000 -0.000000 -0.000000 -0.000000 -0.000000 -0.000000 -0.000000 -0.000000 -0.000000 -0.000000 -0.000000 -0.000000 -0.000000 -0.000000 -0.000000 -0.000000 -0.000000 -0.000000 -0.000000 -0.000000 -0.000000 -0.000000 -0.000000 -0.000000 -0.000000 -0.000000 -0.000000 -0.000000 -0.000000 -0.000000 -0.000000 -0.000000 -0.000000 -0.000000 -0.000000 -0.000000 -0.000000 -0.000000 -0.000000 -0.000000 -0.000000 -0.000000 -0.000000 -0.000000 -0.000000 -0.000000 -0.000000 -0.000000 -0.000000 -0.000000 -0.000000 -0.000000 -0.000000 -0.000000 -0.000000 -0.000000 -0.000000 -0.000000 -0.000000 -0.000000 -0.000000 -0.000000 -0.000000 -0.000000 -0.000000 -0.000000 -0.000000 -0.000000 -0.000000 -0.000000 -0.000000 -0.000000 -0.000000 -0.000000 0.000000 -0.000000 0.000000 -0.000000 -0.000000 -0.000000 -0.000000 0.000000 0.000000 -0.000000 -0.000000 -0.000000 0.000000 -0.000000 -0.000000 0.000000 0.000000 0.000000 0.000000 -0.000000 -0.000000 -0.000000 -0.000000 -0.000000 -0.000000 -0.000000 -0.000000 -0.000000 -0.000000 -0.000000 -0.000000 -0.000000 -0.000000 -0.000001 -0.000001 -0.000002 -0.000003 -0.000005 -0.000008 -0.000013 -0.000022 -0.000035 -0.000056 -0.000088 -0.000137 -0.000211 -0.000323 -0.000489 -0.000734 -0.001089 -0.001601 -0.002327 -0.003345 -0.004753 -0.006672 -0.009243 -0.012629 -0.016993 -0.022483 -0.029181 -0.037037 -0.045754 -0.054616 -0.062237 -0.066202 -0.062548 -0.045067 -0.004347 0.073504 0.208530 0.429082 0.774559 1.298824 2.074396 3.197489 4.793945 7.026071 10.100326 14.275761 19.873056 27.284016 36.981419 49.529190 65.592935 85.950710 111.503181 143.280518 182.439794 230.240970 287.982246 356.869644 437.797945 531.043005 635.928021 750.660980 872.824866 1001.665120 1144.950529 1337.197014 1683.702546 2564.731640 3915.665667 3992.556834 3673.243084 5549.885090 7058.763832 7796.758201 9078.711638 9920.559233 10477.765193 12875.092750 14405.398630 14642.526183 15727.367560 18761.686961 20293.733868 18521.841720 19280.188905 17872.466442 18176.713191 16919.863170 13911.708906 13465.868966 13460.070094 13460.070094 13460.070094 0.000000 0.000000 0.000000 0.000000 -0.000000 -0.000000 -0.000000 -0.000000 -0.000000 -0.000000 -0.000000 -0.000000 -0.000000 -0.000000 -0.000000 -0.000000 -0.000000 -0.000000 -0.000001 -0.000001 -0.000002 -0.000003 -0.000005 -0.000009 -0.000014 -0.000023 -0.000036 -0.000057 -0.000090 -0.000140 -0.000216 -0.000331 -0.000500 -0.000750 -0.001112 -0.001632 -0.002370 -0.003402 -0.004828 -0.006768 -0.009363 -0.012774 -0.017161 -0.022664 -0.029357 -0.037174 -0.045790 -0.054456 -0.061732 -0.065127 -0.060579 -0.041738 0.000994 0.081754 0.220901 0.447188 0.800517 1.335367 2.124998 3.266500 4.886721 7.149105 10.261355 14.483853 20.138674 27.619061 37.399272 50.044758 66.222699 86.712705 112.416727 144.365383 183.714460 231.720048 289.674614 358.782559 439.959459 533.565616 639.146460 755.367340 880.529873 1014.425537 1162.992767 1348.189323 1624.660360 2062.105892 2608.612785 2983.861711 3406.326912 4409.893721 5305.213281 6145.907941 7008.152013 7824.848936 8832.121692 10559.985119 11878.649783 12301.479923 13921.314460 16944.823350 17978.608509 17563.577215 17252.438927 16018.333445 15159.688471 13201.225129 12149.053523 12610.166924 12722.390929 12722.390929 12722.390929 0.000000 0.000000 0.000000 0.000000 -0.000000 -0.000000 -0.000000 -0.000000 -0.000000 -0.000000 -0.000000 -0.000000 -0.000000 -0.000000 -0.000000 -0.000000 -0.000000 -0.000000 -0.000001 -0.000001 -0.000002 -0.000003 -0.000005 -0.000009 -0.000014 -0.000023 -0.000037 -0.000059 -0.000093 -0.000144 -0.000223 -0.000340 -0.000514 -0.000768 -0.001138 -0.001668 -0.002419 -0.003468 -0.004914 -0.006878 -0.009501 -0.012939 -0.017351 -0.022869 -0.029554 -0.037321 -0.045818 -0.054250 -0.061121 -0.063850 -0.058257 -0.037831 0.007241 0.091378 0.235303 0.468232 0.830642 1.377720 2.183579 3.346308 4.993911 7.291126 10.447080 14.723675 20.444579 28.004684 37.879942 50.637550 66.946481 87.588069 113.465591 145.609856 185.174501 233.409831 291.599047 360.939121 442.357657 536.286801 642.476003 760.020361 887.897821 1026.402814 1179.805413 1359.926942 1587.742783 1884.827347 2250.273355 2661.870291 3135.937105 3709.212045 4347.130615 5022.239835 5742.828858 6498.360493 7303.876040 8156.659432 8940.177661 9671.242676 10547.153610 11591.830701 12366.591021 13017.206538 13247.317508 13134.204245 12913.257180 12525.470838 12356.924898 12354.804431 12343.645254 12343.645254 12343.645254 -0.000000 -0.000000 -0.000000 -0.000000 -0.000000 -0.000000 -0.000000 -0.000000 -0.000000 -0.000000 -0.000000 -0.000000 -0.000000 -0.000000 -0.000000 -0.000000 -0.000000 -0.000000 -0.000001 -0.000001 -0.000002 -0.000003 -0.000005 -0.000009 -0.000015 -0.000023 -0.000038 -0.000059 -0.000093 -0.000145 -0.000224 -0.000341 -0.000516 -0.000772 -0.001143 -0.001675 -0.002428 -0.003480 -0.004930 -0.006898 -0.009525 -0.012969 -0.017385 -0.022905 -0.029589 -0.037346 -0.045821 -0.054211 -0.061008 -0.063616 -0.057833 -0.037121 0.008374 0.093122 0.237909 0.472037 0.836084 1.385367 2.194149 3.360699 5.013228 7.316706 10.480516 14.766831 20.499605 28.074025 37.966346 50.744080 67.076518 87.745298 113.653919 145.833190 185.436291 233.712355 291.942649 361.322268 442.779828 536.757965 643.037913 760.783063 889.079572 1028.303519 1182.475100 1361.965566 1583.907412 1865.681979 2212.634087 2618.625398 3087.672315 3630.152317 4234.620914 4888.148579 5586.327626 6320.141270 7084.322349 7859.043445 8594.239425 9309.204259 10093.986205 10932.280919 11696.479552 12309.625919 12661.825883 12726.365930 12656.786117 12543.115025 12410.529796 12312.637974 12291.950792 12291.950792 12291.950792 -0.000000 -0.000000 -0.000000 -0.000000 -0.000000 -0.000000 -0.000000 -0.000000 -0.000000 -0.000000 -0.000000 -0.000000 -0.000000 -0.000000 -0.000000 -0.000000 -0.000000 -0.000000 -0.000001 -0.000001 -0.000002 -0.000003 -0.000005 -0.000009 -0.000015 -0.000023 -0.000038 -0.000059 -0.000093 -0.000145 -0.000224 -0.000341 -0.000516 -0.000772 -0.001143 -0.001675 -0.002428 -0.003480 -0.004930 -0.006898 -0.009525 -0.012969 -0.017385 -0.022905 -0.029589 -0.037346 -0.045821 -0.054211 -0.061008 -0.063616 -0.057833 -0.037121 0.008374 0.093122 0.237909 0.472037 0.836084 1.385367 2.194149 3.360699 5.013228 7.316706 10.480516 14.766831 20.499605 28.074025 37.966346 50.744080 67.076518 87.745298 113.653919 145.833190 185.436291 233.712355 291.942649 361.322268 442.779828 536.757965 643.037913 760.783063 889.079572 1028.303519 1182.475100 1361.965566 1583.907412 1865.681979 2212.634087 2618.625398 3087.672315 3630.152317 4234.620914 4888.148579 5586.327626 6320.141270 7084.322349 7859.043445 8594.239425 9309.204259 10093.986205 10932.280919 11696.479552 12309.625919 12661.825883 12726.365930 12656.786117 12543.115025 12410.529796 12312.637974 12291.950792 12291.950792 12291.950792 -0.000000 -0.000000 -0.000000 -0.000000 -0.000000 -0.000000 -0.000000 -0.000000 -0.000000 -0.000000 -0.000000 -0.000000 -0.000000 -0.000000 -0.000000 -0.000000 -0.000000 -0.000000 -0.000001 -0.000001 -0.000002 -0.000003 -0.000005 -0.000009 -0.000015 -0.000023 -0.000038 -0.000059 -0.000093 -0.000145 -0.000224 -0.000341 -0.000516 -0.000772 -0.001143 -0.001675 -0.002428 -0.003480 -0.004930 -0.006898 -0.009525 -0.012969 -0.017385 -0.022905 -0.029589 -0.037346 -0.045821 -0.054211 -0.061008 -0.063616 -0.057833 -0.037121 0.008374 0.093122 0.237909 0.472037 0.836084 1.385367 2.194149 3.360699 5.013228 7.316706 10.480516 14.766831 20.499605 28.074025 37.966346 50.744080 67.076518 87.745298 113.653919 145.833190 185.436291 233.712355 291.942649 361.322268 442.779828 536.757965 643.037913 760.783063 889.079572 1028.303519 1182.475100 1361.965566 1583.907412 1865.681979 2212.634087 2618.625398 3087.672315 3630.152317 4234.620914 4888.148579 5586.327626 6320.141270 7084.322349 7859.043445 8594.239425 9309.204259 10093.986205 10932.280919 11696.479552 12309.625919 12661.825883 12726.365930 12656.786117 12543.115025 12410.529796 12312.637974 12291.950792 12291.950792 12291.950792 -1341.639443 -1563.216998 -1974.035482 -2283.810851 -794.936180 252.515901 -809.088104 -1301.127265 598.507378 1272.539243 37.423932 -1193.545797 -1537.712542 835.633593 1175.856474 -856.944466 -1944.100759 703.088644 1554.977763 -1171.086832 -1130.075655 2017.341528 1674.903699 190.077324 -1341.711301 -1533.466785 1579.891284 1761.681249 -189.268451 -2689.832403 -1450.742127 2958.869154 -737.147258 -2296.647025 4221.442322 4723.083270 4503.563221 2723.761915 6318.607564 7547.103235 2953.245864 4702.030543 4927.099577 5783.594018 4881.298796 6729.480736 8807.197498 10875.809553 10398.769108 8217.303712 8284.761702 12500.602299 14743.705229 14915.913657 14915.913657 14915.913657 -1064.578795 121.924122 -381.774966 6157.979549 3658.302528 8841.097840 7004.728977 8017.097473 10255.731745 7609.052730 10718.346855 9934.168767 8323.778758 9658.516913 12360.835003 13555.994912 5491.375398 8490.364534 13324.392538 10842.839318 11114.217945 15347.822177 7859.859545 6940.531612 7710.549531 11055.969671 11899.204493 7021.747462 7881.641227 9647.778160 6424.922208 8455.508921 7492.528791 5945.570990 5138.655383 9613.184549 12199.935162 6903.305452 11403.869247 7830.108100 6239.101928 12011.556290 7344.554268 8220.215841 7493.613816 8993.437937 8642.974173 10055.184766 7243.017184 6213.153872 11457.319821 13716.000450 15147.029052 15103.872868 15103.872868 15103.872868 144.288353 83.788159 3072.518600 212.840552 2851.770986 2799.416786 4543.546892 4758.532092 7145.977821 5646.996456 7058.577137 2767.842237 5413.445442 4943.835220 4968.157129 4272.887386 5507.228074 6932.763929 8673.597112 8313.546271 7636.187802 10784.067794 9330.004514 9510.884200 9355.216682 8517.353949 9849.680840 9859.850784 9317.731946 8884.454672 7980.920289 8987.483008 4927.446895 10248.263883 8051.099836 8023.677201 9030.025288 7793.791894 6499.031444 7156.699767 6556.456657 8143.995215 9064.192106 6932.237992 7970.746253 10464.728326 8981.058144 8473.563933 8229.564782 9594.834757 5034.809144 12289.145936 14985.419243 15218.612327 15218.612327 15218.612327 -315.879083 -228.290747 2000.617723 2165.384710 2773.163176 405.039885 3234.413989 2180.441840 4496.056148 7746.808875 4562.735888 5668.940331 4922.121870 4014.805802 5220.470053 4727.797383 5307.129260 7020.877222 4702.010440 6137.010485 5342.180750 4498.852152 8348.458875 5732.844645 8205.475344 4318.660385 5762.055378 3787.137634 9529.264871 7155.914800 8095.658899 9739.662803 10423.296515 5683.454426 8026.491657 9851.289677 7676.925859 8283.537475 10565.338882 6658.718694 6765.435661 8241.191602 8550.736143 10694.862892 10083.214186 11749.692951 10639.356577 9535.152950 9091.278917 9341.412441 7457.508779 13508.400674 14878.297040 15153.767523 15153.767523 15153.767523 -238.492673 2246.693000 3294.576063 540.321138 691.400804 4074.658702 2935.810475 3889.694063 1815.368587 3646.748574 855.294981 1372.615115 1732.674643 4117.915373 2382.385006 5539.391151 3501.555610 3238.609958 4261.051621 2815.877123 1597.543184 5155.176590 5490.503622 6243.567829 6413.123332 6665.807394 7172.064575 7116.330957 5960.043465 8550.655525 6899.601274 8841.014204 7154.121573 6985