<VTKFile type="PolyData">
<PolyData>
<Piece NumberOfPoints="8632" NumberOfVerts="8632" NumberOfLines="0" NumberOfStrips="0" NumberOfPolys="0">
<PointData>
<DataArray type="Float64" Name="Pressure" format="ascii">
 -0.045530 -0.045530 -0.045530 -0.047327 -0.067771 -0.122410 -0.189272 -0.274058 -0.381739 -0.518830 -0.693828 -0.917324 -1.202261 -1.564296 -2.022255 -2.598628 -3.320114 -4.218193 -5.329719 -6.697516 -8.370985 -10.406678 -12.868846 -15.829944 -19.371055 -23.582255 -28.562869 -34.421634 -41.276747 -49.255803 -58.495609 -69.141884 -81.348840 -95.278637 -111.100723 -128.991032 -149.131038 -171.706630 -196.906788 -224.921992 -255.942319 -290.155119 -327.742155 -368.876039 -413.715708 -462.400626 -515.043213 -571.718703 -632.450948 -697.190817 -765.778988 -837.872060 -912.778676 -989.086254 -1063.851601 -1131.568745 -1183.887516 -1208.630136 -1185.631402 -1085.638998 -911.189487 -739.476843 -613.773398 -483.319509 -325.583080 -218.671394 -201.798134 -219.068749 -198.132243 -122.476213 -65.929226 -76.070015 -93.862294 -48.401024 36.875821 81.370822 101.525548 167.496288 261.082238 297.398951 274.150596 267.442762 344.653592 487.240667 604.087479 672.159689 760.415931 950.400264 1250.155149 1573.227626 1861.449421 2149.244449 2512.803006 3012.611880 3652.964986 4384.140664 5154.033871 5929.843439 6690.887739 7426.040954 8125.790445 8771.584001 9355.344073 9905.667373 10443.916019 10958.646411 11435.367003 11755.205758 11816.496178 11816.496178 11816.496178 -0.045530 -0.045530 -0.045530 -0.047327 -0.067771 -0.122410 -0.189272 -0.274058 -0.381739 -0.518830 -0.693828 -0.917324 -1.202261 -1.564296 -2.022255 -2.598628 -3.320114 -4.218193 -5.329719 -6.697516 -8.370985 -10.406678 -12.868846 -15.829944 -19.371055 -23.582255 -28.562869 -34.421634 -41.276747 -49.255803 -58.495609 -69.141884 -81.348840 -95.278637 -111.100723 -128.991032 -149.131038 -171.706630 -196.906788 -224.921992 -255.942319 -290.155119 -327.742155 -368.876039 -413.715708 -462.400626 -515.043213 -571.718703 -632.450948 -697.190817 -765.778988 -837.872060 -912.778676 -989.086254 -1063.851601 -1131.568745 -1183.887516 -1208.630136 -1185.631402 -1085.638998 -911.189487 -739.476843 -613.773398 -483.319509 -325.583080 -218.671394 -201.798134 -219.068749 -198.132243 -122.476213 -65.929226 -76.070015 -93.862294 -48.401024 36.875821 81.370822 101.525548 167.496288 261.082238 297.398951 274.150596 267.442762 344.653592 487.240667 604.087479 672.159689 760.415931 950.400264 1250.155149 1573.227626 1861.449421 2149.244449 2512.803006 3012.611880 3652.964986 4384.140664 5154.033871 5929.843439 6690.887739 7426.040954 8125.790445 8771.584001 9355.344073 9905.667373 10443.916019 10958.646411 11435.367003 11755.205758 11816.496178 11816.496178 11816.496178 -0.045530 -0.045530 -0.045530 -0.047327 -0.067771 -0.122410 -0.189272 -0.274058 -0.381739 -0.518830 -0.693828 -0.917324 -1.202261 -1.564296 -2.022255 -2.598628 -3.320114 -4.218193 -5.329719 -6.697516 -8.370985 -10.406678 -12.868846 -15.829944 -19.371055 -23.582255 -28.562869 -34.421634 -41.276747 -49.255803 -58.495609 -69.141884 -81.348840 -95.278637 -111.100723 -128.991032 -149.131038 -171.706630 -196.906788 -224.921992 -255.942319 -290.155119 -327.742155 -368.876039 -413.715708 -462.400626 -515.043213 -571.718703 -632.450948 -697.190817 -765.778988 -837.872060 -912.778676 -989.086254 -1063.851601 -1131.568745 -1183.887516 -1208.630136 -1185.631402 -1085.638998 -911.189487 -739.476843 -613.773398 -483.319509 -325.583080 -218.671394 -201.798134 -219.068749 -198.132243 -122.476213 -65.929226 -76.070015 -93.862294 -48.401024 36.875821 81.370822 101.525548 167.496288 261.082238 297.398951 274.150596 267.442762 344.653592 487.240667 604.087479 672.159689 760.415931 950.400264 1250.155149 1573.227626 1861.449421 2149.244449 2512.803006 3012.611880 3652.964986 4384.140664 5154.033871 5929.843439 6690.887739 7426.040954 8125.790445 8771.584001 9355.344073 9905.667373 10443.916019 10958.646411 11435.367003 11755.205758 11816.496178 11816.496178 11816.496178 -0.045127 -0.045127 -0.045127 -0.046882 -0.067125 -0.121306 -0.188166 -0.273246 -0.381114 -0.518217 -0.693119 -0.916454 -1.201179 -1.562954 -2.020598 -2.596596 -3.317640 -4.215201 -5.326124 -6.693225 -8.365897 -10.400683 -12.861829 -15.821781 -19.361619 -23.571414 -28.550490 -34.407581 -41.260886 -49.238002 -58.475740 -69.119825 -81.324474 -95.251859 -111.071437 -128.959156 -149.096503 -171.669386 -196.866806 -224.879271 -255.896891 -290.107059 -327.691605 -368.823233 -413.661052 -462.344853 -514.987751 -571.666570 -632.408933 -697.174904 -765.827808 -838.079895 -913.372902 -990.589182 -1067.152903 -1137.781040 -1194.396699 -1226.819884 -1214.848750 -1108.244739 -872.611403 -720.239025 -618.317039 -502.330138 -307.228202 -187.290987 -191.129324 -234.242631 -220.346400 -116.756775 -42.889216 -73.949891 -118.568335 -65.525227 50.659609 89.025763 80.806386 152.477807 279.602340 317.129007 265.985718 232.486361 314.264869 492.409683 618.212913 660.587794 717.073159 900.729544 1234.420576 1581.066478 1858.356205 2121.318872 2463.810936 2961.782308 3623.590937 4375.906553 5158.422662 5938.084651 6693.038256 7427.879290 8142.698487 8806.479230 9375.364339 9902.236848 10431.677045 10948.437739 11422.043514 11743.320512 11804.440328 11804.440328 11804.440328 -0.040834 -0.040834 -0.040834 -0.042199 -0.059337 -0.106513 -0.173917 -0.264704 -0.374849 -0.512112 -0.686054 -0.907779 -1.190388 -1.549556 -2.004058 -2.576315 -3.292940 -4.185323 -5.290222 -6.650371 -8.315076 -10.340804 -12.791729 -15.740233 -19.267347 -23.463101 -28.426795 -34.267154 -41.102385 -49.060107 -58.277171 -68.899357 -81.080955 -94.984224 -110.778729 -128.640543 -148.751304 -171.297099 -196.467145 -224.452215 -255.442754 -289.626599 -327.186199 -368.295224 -413.114438 -461.786833 -514.432316 -571.143153 -631.983643 -697.003192 -766.285663 -840.089653 -919.200921 -1005.625985 -1104.013027 -1208.950421 -1310.061306 -1428.360194 -1559.716260 -1394.950507 -420.283798 -229.627003 -709.582682 -865.465327 -66.656375 326.011252 -68.244213 -442.373291 -657.182978 -22.569419 423.460285 -40.999247 -522.307185 -414.318732 411.810701 265.071261 -276.871007 -167.872403 645.365227 632.881169 170.452544 -256.307176 -191.762008 663.726401 892.045780 542.696303 149.033286 161.708540 1081.483809 1787.196631 1868.982882 1797.907971 1846.425335 2292.126663 3230.798422 4229.627850 5139.234430 5934.002055 6531.237764 7186.355428 8174.224609 9256.431862 9671.293227 9846.562404 10254.989780 10823.324768 11232.469385 11571.781251 11654.727583 11654.727583 11654.727583 -0.035006 -0.035006 -0.035006 -0.036040 -0.048065 -0.080668 -0.143395 -0.250844 -0.366754 -0.504880 -0.677956 -0.897935 -1.178178 -1.534404 -1.985352 -2.553371 -3.264988 -4.151499 -5.249566 -6.601824 -8.257487 -10.272930 -12.712246 -15.647747 -19.160403 -23.340201 -28.286412 -34.107751 -40.922433 -48.858103 -58.051658 -68.648939 -80.804320 -94.680159 -110.446142 -128.278486 -148.358998 -170.873970 -196.012862 -223.966751 -254.926469 -289.080370 -326.611662 -367.695227 -412.494033 -461.155509 -513.809298 -570.570270 -631.557077 -696.952494 -767.171675 -843.304525 -928.255941 -1029.716062 -1168.672759 -1310.784815 -1449.598248 -1668.203808 -2059.869753 -2249.656351 -621.968304 236.252605 -851.312506 -1422.268226 279.344287 1118.952152 120.731534 -814.212248 -1509.649836 92.676838 1331.046899 87.399515 -1375.280036 -1215.999952 1292.620137 810.144311 -1290.232759 -1088.143566 1762.265745 1450.525343 55.681395 -1317.867605 -1507.820114 1394.740631 1775.289963 414.842894 -883.201912 -1681.987991 1099.438981 2705.427466 1950.614599 1400.211625 814.512379 833.250710 2557.448940 3730.452042 4277.907640 5677.024799 5089.080156 5479.802485 6713.861378 10631.235175 10805.388438 10072.969001 9913.760625 11151.985365 11217.817347 11224.216106 11383.301668 11383.301668 11383.301668 -0.034228 -0.034228 -0.034228 -0.035214 -0.046576 -0.076657 -0.029168 -0.029168 -0.029168 -0.029799 -0.037018 -0.052976 -0.021959 -0.021959 -0.021959 -0.022236 -0.025172 -0.030147 -0.016116 -0.016116 -0.016116 -0.016220 -0.017245 -0.018922 -0.011640 -0.011640 -0.011640 -0.011671 -0.011974 -0.012498 -0.008314 -0.008314 -0.008314 -0.008319 -0.008370 -0.008494 -0.005889 -0.005889 -0.005889 -0.005887 -0.005859 -0.005854 -0.004143 -0.004143 -0.004143 -0.004139 -0.004095 -0.004055 -0.002896 -0.002896 -0.002896 -0.002892 -0.002852 -0.002810 -0.002013 -0.002013 -0.002013 -0.002010 -0.001978 -0.001943 -0.001392 -0.001392 -0.001392 -0.001389 -0.001365 -0.001339 -0.000957 -0.000957 -0.000957 -0.000955 -0.000938 -0.000918 -0.000654 -0.000654 -0.000654 -0.000653 -0.000640 -0.000627 -0.000445 -0.000445 -0.000445 -0.000444 -0.000435 -0.000425 -0.000301 -0.000301 -0.000301 -0.000300 -0.000294 -0.000287 -0.000203 -0.000203 -0.000203 -0.000202 -0.000198 -0.000193 -0.000136 -0.000136 -0.000136 -0.000135 -0.000132 -0.000129 -0.000090 -0.000090 -0.000090 -0.000090 -0.000088 -0.000086 -0.000060 -0.000060 -0.000060 -0.000060 -0.000058 -0.000057 -0.000039 -0.000039 -0.000039 -0.000039 -0.000038 -0.000037 -0.000026 -0.000026 -0.000026 -0.000026 -0.000025 -0.000024 -0.000017 -0.000017 -0.000017 -0.000017 -0.000016 -0.000016 -0.000011 -0.000011 -0.000011 -0.000011 -0.000011 -0.000010 -0.000007 -0.000007 -0.000007 -0.000007 -0.000007 -0.000007 -0.000005 -0.000005 -0.000005 -0.000005 -0.000004 -0.000004 -0.000003 -0.000003 -0.000003 -0.000003 -0.000003 -0.000003 -0.000002 -0.000002 -0.000002 -0.000002 -0.000002 -0.000002 -0.000001 -0.000001 -0.000001 -0.000001 -0.000001 -0.000001 -0.000001 -0.000001 -0.000001 -0.000001 -0.000001 -0.000001 -0.000000 -0.000000 -0.000000 -0.000000 -0.000000 -0.000000 -0.000000 -0.000000 -0.000000 -0.000000 -0.000000 -0.000000 -0.000000 -0.000000 -0.000000 -0.000000 -0.000000 -0.000000 -0.000000 -0.000000 -0.000000 -0.000000 -0.000000 -0.000000 -0.000000 -0.000000 -0.000000 -0.000000 -0.000000 -0.000000 -0.000000 -0.000000 -0.000000 -0.000000 -0.000000 -0.000000 -0.000000 -0.000000 -0.000000 -0.000000 -0.000000 -0.000000 -0.000000 -0.000000 -0.000000 -0.000000 -0.000000 -0.000000 -0.000000 -0.000000 -0.000000 -0.000000 -0.000000 -0.000000 -0.000000 -0.000000 -0.000000 -0.000000 -0.000000 -0.000000 -0.000000 -0.000000 -0.000000 -0.000000 -0.000000 -0.000000 -0.000000 -0.000000 -0.000000 -0.000000 -0.000000 -0.000000 -0.000000 -0.000000 -0.000000 -0.000000 -0.000000 -0.000000 -0.000000 -0.000000 -0.000000 -0.000000 -0.000000 -0.000000 -0.000000 -0.000000 -0.000000 -0.000000 -0.000000 -0.000000 -0.000000 -0.000000 -0.000000 -0.000000 -0.000000 -0.000000 -0.000000 -0.000000 -0.000000 -0.000000 -0.000000 -0.000000 -0.000000 -0.000000 -0.000000 -0.000000 -0.000000 -0.000000 -0.000000 -0.000000 -0.000000 -0.000000 -0.000000 -0.000000 -0.000000 -0.000000 -0.000000 -0.000000 -0.000000 -0.000000 -0.000000 -0.000000 -0.000000 -0.000000 -0.000000 -0.000000 -0.000000 -0.000000 -0.000000 -0.000000 -0.000000 -0.000000 -0.000000 -0.000000 -0.000000 -0.000000 -0.000000 -0.000000 -0.000000 -0.000000 -0.000000 -0.000000 -0.000000 -0.000000 -0.000000 -0.000000 -0.000000 -0.000000 -0.000000 -0.000000 -0.000000 -0.000000 -0.000000 -0.000000 -0.000000 -0.000000 -0.000000 -0.000000 -0.000000 -0.000000 -0.000000 -0.000000 -0.000000 -0.000000 -0.000000 -0.000000 -0.000000 -0.000000 -0.000000 -0.000000 -0.000000 -0.000000 -0.000000 -0.000000 -0.000000 -0.000000 -0.000000 -0.000000 -0.000000 -0.000000 -0.000000 -0.000000 -0.000000 -0.000000 -0.000000 -0.000000 -0.000000 -0.000000 -0.000000 -0.000000 -0.000000 -0.000000 -0.000000 -0.000000 -0.000000 -0.000000 -0.000000 -0.000000 -0.000000 -0.000000 -0.000000 -0.000000 -0.000000 -0.000000 -0.000000 -0.000000 -0.000000 -0.000000 -0.000000 -0.000000 -0.000000 -0.000000 -0.000000 -0.000000 -0.000000 -0.000000 -0.000000 -0.000000 -0.000000 -0.000000 -0.000000 -0.000000 -0.000000 -0.000000 -0.000000 -0.000000 -0.000000 -0.000000 -0.000000 -0.000000 -0.000000 -0.000000 -0.000000 -0.000000 -0.000000 -0.000000 -0.000000 -0.000000 -0.000000 -0.000000 -0.000000 -0.000000 -0.000000 -0.000000 -0.000000 -0.000000 -0.000000 -0.000000 -0.000000 -0.000000 -0.000000 -0.000000 -0.000000 -0.000000 -0.000000 -0.000000 -0.000000 -0.000000 -0.000000 -0.000000 -0.000000 -0.000000 -0.000000 -0.000000 -0.000000 -0.000000 -0.000000 -0.000000 -0.000000 -0.000000 -0.000000 -0.000000 -0.000000 -0.000000 -0.000000 -0.000000 -0.000000 -0.000000 -0.000000 -0.000000 -0.000000 -0.000000 -0.000000 -0.000000 -0.000000 -0.000000 -0.000000 -0.000000 -0.000000 -0.000000 -0.000000 -0.000000 -0.000000 -0.000000 -0.000000 -0.000000 -0.000000 -0.000000 -0.000000 -0.000000 -0.000000 -0.000000 -0.000000 -0.000000 -0.000000 -0.000000 -0.000000 -0.000000 -0.000000 -0.000000 -0.000000 -0.000000 -0.000000 -0.000000 -0.000000 -0.000000 -0.000000 -0.000000 -0.000000 -0.000000 -0.000000 -0.000000 -0.000000 -0.000000 -0.000000 -0.000000 -0.000000 -0.000000 -0.000000 -0.000000 -0.000000 -0.000000 -0.000000 -0.000000 -0.000000 -0.000000 -0.000000 -0.000000 -0.000000 -0.000000 -0.000000 -0.000000 -0.000000 -0.000000 -0.000000 -0.000000 -0.000000 -0.000000 -0.000000 -0.000000 -0.000000 -0.000000 -0.000000 -0.000000 -0.000000 -0.000000 -0.000000 -0.000000 -0.000000 -0.000000 -0.000000 -0.000000 -0.000000 -0.000000 -0.000000 -0.000000 -0.000000 -0.000000 -0.000000 -0.000000 -0.000000 -0.000000 -0.000000 -0.000000 -0.000000 -0.000000 -0.000000 -0.000000 -0.000000 -0.000000 -0.000000 -0.000000 -0.000000 -0.000000 -0.000000 -0.000000 -0.000000 -0.000000 -0.000000 -0.000000 -0.000000 -0.000000 -0.000000 -0.000000 -0.000000 -0.000000 -0.000000 -0.000000 -0.000000 -0.000000 -0.000000 -0.000000 -0.000000 -0.000000 -0.000000 -0.000000 -0.000000 -0.000000 -0.000000 -0.000000 -0.000000 -0.000000 -0.000000 -0.000000 -0.000000 -0.000000 -0.000000 -0.000000 -0.000000 -0.000000 -0.000000 -0.000000 -0.000000 -0.000000 -0.000000 -0.000000 -0.000000 -0.000000 -0.000000 -0.000000 -0.000000 -0.000000 -0.000000 -0.000000 -0.000000 -0.000000 -0.000000 -0.000000 -0.000000 -0.000000 -0.000000 -0.000000 -0.000000 -0.000000 -0.000000 -0.000000 -0.000000 -0.000000 -0.000000 -0.000000 -0.000000 -0.000000 -0.000000 -0.000000 -0.000000 -0.000000 -0.000000 -0.000000 -0.000000 -0.000000 -0.000000 -0.000000 -0.000000 -0.000000 -0.000000 -0.000000 -0.000000 -0.000000 -0.000000 -0.000000 -0.000000 -0.000000 -0.000000 -0.000000 -0.000000 -0.000000 -0.000000 -0.000000 -0.000000 -0.000000 -0.000000 -0.000000 -0.000000 -0.000000 -0.000000 -0.000000 -0.000000 -0.000000 -0.000000 -0.000000 -0.000000 -0.000000 -0.000000 -0.000000 -0.000000 -0.000000 -0.000000 -0.000000 -0.000000 -0.000000 -0.000000 -0.000000 -0.000000 -0.000000 -0.000000 -0.000000 -0.000000 -0.000000 -0.000000 -0.000000 -0.000000 -0.000000 -0.000000 -0.000000 -0.000000 -0.000000 -0.000000 -0.000000 -0.000000 -0.000000 -0.000000 -0.000000 -0.000000 -0.000000 -0.000000 -0.000000 -0.000000 -0.000000 -0.000000 -0.000000 -0.000000 -0.000000 -0.000000 -0.000000 -0.000000 -0.000000 -0.000000 -0.000000 -0.000000 -0.000000 -0.000000 -0.000000 -0.000000 -0.000000 -0.000000 -0.000000 -0.000000 -0.000000 -0.000000 -0.000000 -0.000000 -0.000000 -0.000000 -0.000000 -0.000000 -0.000000 -0.000000 -0.000000 -0.000000 -0.000000 -0.000000 -0.000000 -0.000000 -0.000000 -0.000000 -0.000000 -0.000000 -0.000000 -0.000000 -0.000000 -0.000000 -0.000000 -0.000000 -0.000000 -0.000000 -0.000000 -0.000000 -0.000000 -0.000000 -0.000000 -0.000000 -0.000000 -0.000000 -0.000000 -0.000000 -0.000000 -0.000000 -0.000000 -0.000000 -0.000000 -0.000000 -0.000000 -0.000000 -0.000000 -0.000000 -0.000000 -0.000000 -0.000000 -0.000000 -0.000000 -0.000000 -0.000000 -0.000000 -0.000000 -0.000000 -0.000000 -0.000000 -0.000000 -0.000000 -0.000000 -0.000000 -0.000000 -0.000000 -0.000000 -0.000000 -0.000000 -0.000000 -0.000000 -0.000000 -0.000000 -0.000000 -0.000000 -0.000000 -0.000000 -0.000000 -0.000000 -0.000000 -0.000000 -0.000000 -0.000000 -0.000000 -0.000000 -0.000000 -0.000000 -0.000000 -0.000000 -0.000000 -0.000000 -0.000000 -0.000000 -0.000000 -0.000000 -0.000000 -0.000000 -0.000000 -0.000000 -0.000000 -0.000000 -0.000000 -0.000000 -0.000000 -0.000000 -0.000000 -0.000000 -0.000000 -0.000000 -0.000000 -0.000000 -0.000000 -0.000000 -0.000000 -0.000000 -0.000000 -0.000000 -0.000000 -0.000000 -0.000000 -0.000000 -0.000000 -0.000000 -0.000000 -0.000000 -0.000000 -0.000000 -0.000000 -0.000000 -0.000000 -0.000000 -0.000000 -0.000000 -0.000000 -0.000000 -0.000000 -0.000000 -0.000000 -0.000000 -0.000000 -0.000000 -0.000000 -0.000000 -0.000000 -0.000000 -0.000000 -0.000000 -0.000000 -0.000000 -0.000000 -0.000000 -0.000000 -0.000000 -0.000000 -0.000000 -0.000000 -0.000000 -0.000000 -0.000000 -0.000000 -0.000000 -0.000000 -0.000000 -0.000000 -0.000000 -0.000000 -0.000000 -0.000000 -0.000000 -0.000000 -0.000000 -0.000000 -0.000000 -0.000000 -0.000000 -0.000000 -0.000000 -0.000000 -0.000000 -0.000000 -0.000000 -0.000000 -0.000000 -0.000000 -0.000000 -0.000000 -0.000000 -0.000000 -0.000000 -0.000000 -0.000000 -0.000000 -0.000000 -0.000000 -0.000000 -0.000000 -0.000000 -0.000000 -0.000000 -0.000000 -0.000000 -0.000000 -0.000000 -0.000000 -0.000000 -0.000000 -0.000000 -0.000000 -0.000000 -0.000000 -0.000000 -0.000000 -0.000000 -0.000000 -0.000000 -0.000000 -0.000000 -0.000000 -0.000000 -0.000000 -0.000000 -0.000000 -0.000000 -0.000000 -0.000000 -0.000000 -0.000000 -0.000000 -0.000000 -0.000000 -0.000000 -0.000000 -0.000000 -0.000000 -0.000000 -0.000000 -0.000000 -0.000000 -0.000000 -0.000000 -0.000000 -0.000000 -0.000000 0.000000 -0.000000 -0.000000 -0.000000 -0.000000 -0.000000 -0.000000 -0.000000 -0.000000 -0.000000 -0.000000 -0.000000 -0.000000 -0.000000 -0.000000 -0.000000 -0.000000 -0.000000 -0.000000 -0.000000 -0.000000 -0.000000 -0.000000 -0.000000 -0.000000 -0.000000 -0.000000 -0.000000 -0.000000 -0.000000 -0.000000 -0.000000 -0.000000 -0.000000 -0.000000 -0.000000 -0.000000 -0.000000 -0.000000 -0.000000 -0.000000 -0.000000 -0.000000 -0.000000 -0.000000 -0.000000 -0.000000 -0.000000 -0.000000 -0.000000 -0.000000 -0.000000 -0.000000 -0.000000 -0.000000 -0.000000 -0.000000 -0.000000 -0.000000 -0.000000 -0.000000 -0.000000 -0.000000 -0.000000 -0.000000 -0.000000 -0.000000 -0.000000 -0.000000 -0.000000 -0.000000 -0.000000 -0.000000 -0.000000 -0.000000 -0.000000 -0.000000 -0.000000 -0.000000 -0.000000 -0.000000 -0.000000 -0.000000 -0.000000 -0.000000 -0.000000 -0.000000 -0.000000 -0.000000 -0.000000 -0.000000 -0.000000 -0.000000 -0.000000 -0.000000 -0.000000 -0.000000 -0.000000 -0.000000 -0.000000 -0.000000 -0.000000 -0.000000 -0.000000 -0.000000 -0.000000 -0.000000 -0.000000 -0.000000 -0.000000 -0.000000 -0.000000 -0.000000 -0.000000 -0.000000 -0.000000 -0.000000 -0.000000 -0.000000 -0.000000 -0.000000 -0.000000 -0.000000 -0.000000 -0.000000 -0.000000 -0.000000 -0.000000 -0.000000 -0.000000 -0.000000 -0.000000 -0.000000 -0.000000 -0.000000 -0.000000 -0.000000 -0.000000 -0.000000 -0.000000 -0.000000 -0.000000 -0.000000 -0.000000 -0.000000 -0.000000 -0.000000 -0.000000 -0.000000 -0.000000 -0.000000 -0.000000 -0.000000 -0.000000 -0.000000 -0.000000 -0.000000 -0.000000 -0.000000 -0.000000 -0.000000 -0.000000 -0.000000 -0.000000 -0.000000 -0.000000 -0.000000 -0.000000 -0.000000 -0.000000 -0.000000 -0.000000 -0.000000 -0.000000 -0.000000 -0.000000 -0.000000 -0.000000 -0.000000 -0.000000 -0.000000 -0.000000 -0.000000 -0.000000 -0.000000 -0.000000 -0.000000 -0.000000 -0.000000 -0.000000 -0.000000 -0.000000 -0.000000 -0.000000 -0.000000 -0.000000 -0.000000 -0.000000 -0.000000 -0.000000 -0.000000 -0.000000 -0.000000 -0.000000 -0.000000 -0.000000 -0.000000 -0.000000 -0.000000 -0.000000 -0.000000 -0.000000 -0.000000 -0.000000 -0.000000 -0.000000 -0.000000 -0.000000 -0.000000 -0.000000 -0.000000 -0.000000 -0.000000 -0.000000 -0.000000 -0.000000 -0.000000 -0.000000 -0.000000 -0.000000 -0.000000 -0.000000 -0.000000 -0.000000 -0.000000 -0.000000 -0.000000 -0.000000 -0.000000 -0.000000 -0.000000 -0.000000 -0.000001 -0.000001 -0.000002 -0.000003 -0.000005 -0.000007 -0.000010 -0.000015 -0.000022 -0.000032 -0.000045 -0.000065 -0.000092 -0.000129 -0.000179 -0.000247 -0.000337 -0.000454 -0.000605 -0.000794 -0.001027 -0.001303 -0.001618 -0.001955 -0.002277 -0.002519 -0.002570 -0.002249 -0.001275 0.000778 0.004546 0.010951 0.021317 0.037518 0.062163 0.098853 0.152492 0.229695 0.339293 0.492962 0.705994 0.998238 1.395223 1.929500 2.642211 3.584914 4.821663 6.431366 8.510398 11.175476 14.566745 18.851061 24.225386 30.920251 39.203196 49.382121 61.808498 76.880441 95.045725 116.804964 142.715270 173.394780 209.528279 251.873615 301.267477 358.627493 424.945839 501.269319 588.665427 688.189103 800.900405 928.054601 1071.728039 1236.464270 1433.400127 1691.096777 2088.052323 2871.494266 5008.350215 6912.391827 6114.535063 5848.008456 6824.404165 8087.185485 8455.549286 8988.235094 9847.250758 10885.588335 13232.513501 12311.959150 13058.217145 14627.483125 16212.543066 16837.247562 16975.359844 18447.745941 18209.766748 17815.719563 16824.811165 18137.360396 18790.506740 15637.017850 14866.839975 14866.839975 14866.839975 -0.000000 -0.000000 -0.000000 -0.000000 -0.000000 -0.000000 -0.000001 -0.000001 -0.000002 -0.000003 -0.000005 -0.000007 -0.000010 -0.000015 -0.000022 -0.000032 -0.000046 -0.000066 -0.000093 -0.000131 -0.000182 -0.000250 -0.000341 -0.000459 -0.000611 -0.000801 -0.001034 -0.001309 -0.001622 -0.001953 -0.002266 -0.002492 -0.002517 -0.002156 -0.001120 0.001025 0.004926 0.011523 0.022162 0.038742 0.063911 0.101315 0.155919 0.234410 0.345713 0.501617 0.717553 1.013532 1.415284 1.955588 2.675858 3.627956 4.876284 6.500136 8.596310 11.281978 14.697770 19.011039 24.419257 31.153458 39.481668 49.712251 62.197113 77.334789 95.573486 117.414314 143.415001 174.194470 210.438443 252.905697 302.433509 359.939241 426.413519 502.900548 590.465785 690.165464 803.062594 930.387605 1074.030383 1237.714178 1429.584277 1667.979826 1994.570915 2500.176523 3228.738421 3919.927788 4336.804443 4670.507730 5587.376344 6502.189585 7046.735495 7946.316746 8664.823074 9691.540235 11106.941312 11184.389127 11802.179829 12785.120860 13764.470512 14460.591590 14884.807870 15409.464788 15412.929642 14962.849817 15219.763807 17030.812466 17020.211521 14566.349881 14143.344230 14143.344230 14143.344230 -0.000000 -0.000000 -0.000000 -0.000000 -0.000000 -0.000000 -0.000001 -0.000001 -0.000002 -0.000003 -0.000005 -0.000007 -0.000011 -0.000016 -0.000023 -0.000033 -0.000047 -0.000067 -0.000095 -0.000133 -0.000185 -0.000254 -0.000346 -0.000465 -0.000617 -0.000808 -0.001041 -0.001316 -0.001626 -0.001951 -0.002253 -0.002460 -0.002455 -0.002046 -0.000939 0.001313 0.005370 0.012190 0.023144 0.040164 0.065940 0.104171 0.159890 0.239871 0.353143 0.511627 0.730910 1.031197 1.438440 1.985687 2.714656 3.677563 4.939208 6.579324 8.695195 11.404512 14.848457 19.194956 24.642058 31.421373 39.801485 50.091284 62.643178 77.856186 96.179019 118.113363 144.217661 175.111729 211.482330 254.089230 303.770224 361.442117 428.093393 504.764787 592.518906 692.413387 805.517105 933.045188 1076.726526 1239.535795 1426.886820 1648.216156 1918.230842 2253.457653 2654.462408 3085.568394 3514.322203 3980.833999 4546.726925 5188.733544 5866.604719 6588.827079 7344.825558 8147.588850 8966.126490 9718.851996 10475.769556 11238.618051 11915.085670 12476.760517 12947.048196 13360.302159 13729.024795 13948.285470 14128.678419 14338.946781 14113.529984 13788.478476 13772.118392 13772.118392 13772.118392 -0.000000 -0.000000 -0.000000 -0.000000 -0.000000 -0.000000 -0.000001 -0.000001 -0.000002 -0.000003 -0.000005 -0.000007 -0.000011 -0.000016 -0.000023 -0.000033 -0.000047 -0.000067 -0.000095 -0.000133 -0.000185 -0.000255 -0.000346 -0.000466 -0.000618 -0.000809 -0.001042 -0.001317 -0.001626 -0.001951 -0.002250 -0.002454 -0.002443 -0.002026 -0.000906 0.001365 0.005450 0.012311 0.023322 0.040421 0.066307 0.104687 0.160607 0.240856 0.354483 0.513431 0.733317 1.034379 1.442611 1.991106 2.721640 3.686491 4.950529 6.593567 8.712976 11.426540 14.875540 19.228004 24.682086 31.469497 39.858920 50.159343 62.723261 77.949781 96.287706 118.238826 144.361711 175.276338 211.669654 254.301593 304.010027 361.711637 428.394487 505.098647 592.886177 692.814997 805.955361 933.521158 1077.218104 1239.906726 1426.581538 1645.354354 1907.323524 2222.536161 2590.063742 2993.495945 3420.718327 3889.651116 4431.234408 5042.563937 5704.435100 6410.251184 7150.575737 7925.847881 8718.755463 9496.012820 10265.926077 11007.519620 11667.625521 12229.730378 12713.438429 13136.555431 13499.931915 13786.075526 13924.951684 13901.836448 13807.126633 13736.412017 13724.100463 13724.100463 13724.100463 -0.000000 -0.000000 -0.000000 -0.000000 -0.000000 -0.000000 -0.000001 -0.000001 -0.000002 -0.000003 -0.000005 -0.000007 -0.000011 -0.000016 -0.000023 -0.000033 -0.000047 -0.000067 -0.000095 -0.000133 -0.000185 -0.000255 -0.000346 -0.000466 -0.000618 -0.000809 -0.001042 -0.001317 -0.001626 -0.001951 -0.002250 -0.002454 -0.002443 -0.002026 -0.000906 0.001365 0.005450 0.012311 0.023322 0.040421 0.066307 0.104687 0.160607 0.240856 0.354483 0.513431 0.733317 1.034379 1.442611 1.991106 2.721640 3.686491 4.950529 6.593567 8.712976 11.426540 14.875540 19.228004 24.682086 31.469497 39.858920 50.159343 62.723261 77.949781 96.287706 118.238826 144.361711 175.276338 211.669654 254.301593 304.010027 361.711637 428.394487 505.098647 592.886177 692.814997 805.955361 933.521158 1077.218104 1239.906726 1426.581538 1645.354354 1907.323524 2222.536161 2590.063742 2993.495945 3420.718327 3889.651116 4431.234408 5042.563937 5704.435100 6410.251184 7150.575737 7925.847881 8718.755463 9496.012820 10265.926077 11007.519620 11667.625521 12229.730378 12713.438429 13136.555431 13499.931915 13786.075526 13924.951684 13901.836448 13807.126633 13736.412017 13724.100463 13724.100463 13724.100463 -0.000000 -0.000000 -0.000000 -0.000000 -0.000000 -0.000000 -0.000001 -0.000001 -0.000002 -0.000003 -0.000005 -0.000007 -0.000011 -0.000016 -0.000023 -0.000033 -0.000047 -0.000067 -0.000095 -0.000133 -0.000185 -0.000255 -0.000346 -0.000466 -0.000618 -0.000809 -0.001042 -0.001317 -0.001626 -0.001951 -0.002250 -0.002454 -0.002443 -0.002026 -0.000906 0.001365 0.005450 0.012311 0.023322 0.040421 0.066307 0.104687 0.160607 0.240856 0.354483 0.513431 0.733317 1.034379 1.442611 1.991106 2.721640 3.686491 4.950529 6.593567 8.712976 11.426540 14.875540 19.228004 24.682086 31.469497 39.858920 50.159343 62.723261 77.949781 96.287706 118.238826 144.361711 175.276338 211.669654 254.301593 304.010027 361.711637 428.394487 505.098647 592.886177 692.814997 805.955361 933.521158 1077.218104 1239.906726 1426.581538 1645.354354 1907.323524 2222.536161 2590.063742 2993.495945 3420.718327 3889.651116 4431.234408 5042.563937 5704.435100 6410.251184 7150.575737 7925.847881 8718.755463 9496.012820 10265.926077 11007.519620 11667.625521 12229.730378 12713.438429 13136.555431 13499.931915 13786.075526 13924.951684 13901.836448 13807.126633 13736.412017 13724.100463 13724.100463 13724.100463 -1346.317189 -1496.781218 -1744.818618 -2224.420582 -2251.312852 -451.876763 61.280959 -1106.507350 -1261.110629 696.858573 1002.036799 -70.636877 -1067.178401 -1467.695329 591.564390 1274.344874 -232.595093 -1758.792137 -833.130217 1675.986103 416.797775 -1828.198132 -616.937377 2282.156034 1253.720867 -212.163729 -1800.573366 -1223.687963 2055.578431 1658.148328 167.473943 -1407.285082 -1729.171818 1917.554877 2822.169021 1829.869074 1227.200914 467.200412 493.509880 2927.358236 3363.687529 4410.360411 5371.597384 4535.020732 5045.251523 7017.796304 11417.803244 10519.301249 9940.553426 9786.256354 11550.826452 11244.524274 11209.429429 11332.258578 11332.258578 11332.258578 427.429864 -172.770199 -226.197974 9042.572835 8584.302751 10998.104322 10227.216660 8425.049133 9889.070799 12454.918404 6927.786698 4409.981312 11655.117945 9528.540273 10722.229157 11614.202350 8273.619093 12417.075300 9367.202051 9933.455665 7044.230712 6497.191091 12143.963822 8136.124471 8328.490617 8480.672852 10846.927540 9835.678224 9542.809264 10241.574926 10211.071378 9350.580377 9778.582720 11204.534231 14314.050131 10061.871708 8180.758705 8954.358284 9458.390588 9588.948858 8495.768917 7381.290743 7945.001974 11223.860996 7790.549309 7633.289864 9197.352090 10429.689630 10082.716925 10151.222728 11117.333184 10653.551954 10808.261066 10952.818674 10952.818674 10952.818674 122.235990 113.236208 2965.585429 657.573479 8484.210124 7104.272723 8452.078685 10168.086946 10262.087654 5767.272913 10427.256958 12907.538147 10094.959129 11267.823156 7784.079772 8522.382521 2511.999534 11314.136908 8662.687442 9871.125168 9632.986906 11059.958664 11491.642736 8681.905384 9096.548792 9395.638497 6125.966927 7845.175717 8259.196656 7667.914070 7824.088801 8177.035388 8298.636444 8341.674114 8869.680431 8649.827550 6336.868301 8837.631247 8725.183492 9396.441482 7784.587902 8617.866084 7720.323040 11018.808941 7898.677903 10366.555548 7304.645800 10574.170194 6527.785190 11659.568074 9597.897567 9323.133338 10238.430789 10555.667990 10555.667990 10555.667990 -195.842218 -617.444154 8596.668178 4504.775769 8128.515580 4296.638923 10405.011970 5195.906679 6621.517414 9516.558587 10216.507594 10263.577287 9514.911735 5406.231625 10968.649504 8048.956312 9787.339084 7399.090880 8626.806320 10405.665771 10722.956974 4947.215298 7588.265244 9595.792002 9778.625310 6801.145928 9445.333252 5683.646195 10973.829270 9903.028744 10016.965944 9187.648425 9354.856792 8536.988590 7179.200598 6411.756154 8648.341321 7668.503076 8167.559914 7572.564374 7558.268593 8480.662072 6539.546697 10609.644785 7441.137753 11262.042363 12122.391001 9376.340915 10343.278074 11262.971357 10717.333592 11140.997131 10443.041486 10501.379548 10501.379548 10501.379548 385.167293 699.534294 2953.952086 1201.753139 1209.281086 11788.307421 7719.558657 7249.830340 3878.436494 10902.559689 1740.733876 8284.726057 7440.886184 7730.954506 7285.896368 6715.078317 1833.808719 3819.610359 8248.211324 2953.716319 2837.402389 3140.279734 10937.300058