<VTKFile type="PolyData">
<PolyData>
<Piece NumberOfPoints="8632" NumberOfVerts="8632" NumberOfLines="0" NumberOfStrips="0" NumberOfPolys="0">
<PointData>
<DataArray type="Float64" Name="Pressure" format="ascii">
 -0.002911 -0.002911 -0.002911 -0.003097 -0.005245 -0.011169 -0.018927 -0.029656 -0.044641 -0.065653 -0.095135 -0.136382 -0.193789 -0.273176 -0.382179 -0.530735 -0.731653 -1.001295 -1.360349 -1.834721 -2.456510 -3.265078 -4.308172 -5.643076 -7.337734 -9.471801 -12.137550 -15.440559 -19.500118 -24.449278 -30.434513 -37.614949 -46.161204 -56.253875 -68.081810 -81.840299 -97.729407 -115.952647 -136.716199 -160.228797 -186.702312 -216.352888 -249.402287 -286.078889 -326.617593 -371.257668 -420.237473 -473.784640 -532.099587 -595.327932 -663.510932 -736.485738 -813.662954 -893.513464 -972.426367 -1043.156219 -1094.289384 -1107.942721 -1051.772280 -906.414858 -729.161024 -588.149357 -458.326120 -304.548544 -181.494937 -152.222189 -177.396351 -175.109298 -109.597777 -42.987988 -35.122150 -32.597249 35.518886 136.313624 198.433642 259.496058 373.153050 481.381402 520.249170 529.985050 596.665231 759.540536 956.185321 1110.602494 1253.759733 1479.444900 1833.481101 2251.402194 2677.800081 3186.974141 3865.870359 4675.516859 5502.868642 6297.013055 7072.381347 7834.253884 8544.869502 9181.354162 9763.800129 10309.090772 10843.250031 11399.284058 11955.181837 12450.947037 12900.028670 13355.578681 13832.993205 14178.553461 14246.669618 14246.669618 14246.669618 -0.002911 -0.002911 -0.002911 -0.003097 -0.005245 -0.011169 -0.018927 -0.029656 -0.044641 -0.065653 -0.095135 -0.136382 -0.193789 -0.273176 -0.382179 -0.530735 -0.731653 -1.001295 -1.360349 -1.834721 -2.456510 -3.265078 -4.308172 -5.643076 -7.337734 -9.471801 -12.137550 -15.440559 -19.500118 -24.449278 -30.434513 -37.614949 -46.161204 -56.253875 -68.081810 -81.840299 -97.729407 -115.952647 -136.716199 -160.228797 -186.702312 -216.352888 -249.402287 -286.078889 -326.617593 -371.257668 -420.237473 -473.784640 -532.099587 -595.327932 -663.510932 -736.485738 -813.662954 -893.513464 -972.426367 -1043.156219 -1094.289384 -1107.942721 -1051.772280 -906.414858 -729.161024 -588.149357 -458.326120 -304.548544 -181.494937 -152.222189 -177.396351 -175.109298 -109.597777 -42.987988 -35.122150 -32.597249 35.518886 136.313624 198.433642 259.496058 373.153050 481.381402 520.249170 529.985050 596.665231 759.540536 956.185321 1110.602494 1253.759733 1479.444900 1833.481101 2251.402194 2677.800081 3186.974141 3865.870359 4675.516859 5502.868642 6297.013055 7072.381347 7834.253884 8544.869502 9181.354162 9763.800129 10309.090772 10843.250031 11399.284058 11955.181837 12450.947037 12900.028670 13355.578681 13832.993205 14178.553461 14246.669618 14246.669618 14246.669618 -0.002911 -0.002911 -0.002911 -0.003097 -0.005245 -0.011169 -0.018927 -0.029656 -0.044641 -0.065653 -0.095135 -0.136382 -0.193789 -0.273176 -0.382179 -0.530735 -0.731653 -1.001295 -1.360349 -1.834721 -2.456510 -3.265078 -4.308172 -5.643076 -7.337734 -9.471801 -12.137550 -15.440559 -19.500118 -24.449278 -30.434513 -37.614949 -46.161204 -56.253875 -68.081810 -81.840299 -97.729407 -115.952647 -136.716199 -160.228797 -186.702312 -216.352888 -249.402287 -286.078889 -326.617593 -371.257668 -420.237473 -473.784640 -532.099587 -595.327932 -663.510932 -736.485738 -813.662954 -893.513464 -972.426367 -1043.156219 -1094.289384 -1107.942721 -1051.772280 -906.414858 -729.161024 -588.149357 -458.326120 -304.548544 -181.494937 -152.222189 -177.396351 -175.109298 -109.597777 -42.987988 -35.122150 -32.597249 35.518886 136.313624 198.433642 259.496058 373.153050 481.381402 520.249170 529.985050 596.665231 759.540536 956.185321 1110.602494 1253.759733 1479.444900 1833.481101 2251.402194 2677.800081 3186.974141 3865.870359 4675.516859 5502.868642 6297.013055 7072.381347 7834.253884 8544.869502 9181.354162 9763.800129 10309.090772 10843.250031 11399.284058 11955.181837 12450.947037 12900.028670 13355.578681 13832.993205 14178.553461 14246.669618 14246.669618 14246.669618 -0.002878 -0.002878 -0.002878 -0.003060 -0.005184 -0.011053 -0.018801 -0.029549 -0.044537 -0.065529 -0.094970 -0.136158 -0.193485 -0.272766 -0.381632 -0.530009 -0.730699 -1.000052 -1.358745 -1.832667 -2.453904 -3.261802 -4.304092 -5.638039 -7.331575 -9.464341 -12.128599 -15.429921 -19.487596 -24.434680 -30.417657 -37.595671 -46.139359 -56.229345 -68.054501 -81.810141 -97.696349 -115.916651 -136.677226 -160.186801 -186.657230 -216.304645 -249.350807 -286.024142 -326.559698 -371.197123 -420.175678 -473.725149 -532.051148 -595.311986 -663.580214 -736.769985 -814.476920 -895.587338 -977.051126 -1052.061498 -1109.511184 -1132.294103 -1078.114329 -942.499445 -719.205102 -581.508098 -469.591540 -296.223988 -145.266080 -133.861054 -187.863801 -199.753319 -111.959743 -22.616766 -34.384924 -59.489889 20.106815 148.686555 195.906108 234.426442 370.108727 502.743504 525.838809 502.333322 549.623835 732.375262 955.586353 1095.108114 1199.107639 1399.521328 1773.006224 2210.998161 2606.641230 3075.187647 3763.405193 4620.788784 5475.505117 6273.797012 7048.413225 7827.755347 8553.209211 9179.181387 9760.334592 10310.744764 10853.794203 11438.202779 12046.021199 12547.531875 12960.719545 13387.081771 13841.912507 14172.455907 14237.117595 14237.117595 14237.117595 -0.002536 -0.002536 -0.002536 -0.002676 -0.004454 -0.009501 -0.017188 -0.028430 -0.043501 -0.064292 -0.093330 -0.133929 -0.190460 -0.268687 -0.376176 -0.522775 -0.721191 -0.987663 -1.342742 -1.812179 -2.427908 -3.229113 -4.263363 -5.587760 -7.270082 -9.389840 -12.039194 -15.323655 -19.362499 -24.288830 -30.249234 -37.403021 -45.921043 -55.984171 -67.781535 -81.508691 -97.365913 -115.556838 -136.287661 -159.767020 -186.206616 -215.822427 -248.836218 -285.476853 -325.980818 -370.591439 -419.556782 -473.127573 -531.559876 -595.135351 -664.231187 -739.516557 -822.447603 -916.268981 -1028.137863 -1153.458383 -1279.184134 -1416.591572 -1634.476579 -1474.628175 -615.342226 -519.287845 -765.418398 -234.339358 435.797061 114.574021 -331.691381 -657.669227 -160.031047 437.446135 -2.432783 -524.421160 -273.634352 518.620084 206.799485 -257.497955 313.911130 923.097568 632.932707 153.467871 -142.763989 358.632092 1115.108303 980.078091 543.147197 312.982943 1029.013326 1943.863006 1820.319638 1654.805690 2432.294716 3992.759782 5190.163047 5950.143247 6610.383605 7608.012976 8598.277273 9125.864420 9721.707736 10500.574663 11152.027736 12079.404043 13446.422464 13932.963340 13704.918945 13765.271653 14040.780363 14126.414715 14132.437568 14132.437568 14132.437568 -0.002085 -0.002085 -0.002085 -0.002189 -0.003414 -0.006831 -0.013829 -0.026724 -0.042237 -0.062872 -0.091479 -0.131424 -0.187060 -0.264101 -0.370040 -0.514633 -0.710482 -0.973698 -1.324693 -1.789057 -2.398551 -3.192177 -4.217314 -5.530879 -7.200477 -9.305467 -11.937890 -15.203187 -19.220619 -24.123340 -30.058059 -37.184272 -45.673077 -55.705632 -67.471365 -81.166111 -96.990366 -115.147900 -135.844923 -159.289981 -185.694602 -215.274607 -248.251818 -284.855755 -325.324968 -369.908074 -418.865936 -472.480096 -531.081521 -595.136093 -665.478562 -743.925180 -834.850571 -949.267609 -1116.496935 -1297.523696 -1486.613503 -1791.616080 -2297.153743 -1632.812905 -15.198027 -401.763476 -1351.240588 -285.073490 1280.398342 501.367607 -598.661997 -1584.454279 -314.500492 1389.729211 155.907206 -1566.974635 -944.454483 1565.098623 334.868924 -1636.268288 245.509422 2144.590899 916.308586 -368.848952 -1652.288083 -312.714385 2022.478570 1082.884501 -381.429102 -1861.148793 -104.161681 2486.660693 1055.360942 -976.277858 -362.873548 3639.217376 4890.731491 5594.050762 5173.133564 5932.585761 9064.574407 8610.060886 10016.348859 12093.256796 13499.899879 13122.471607 17334.126255 17258.167936 13880.509688 13940.779176 14201.438270 14112.880445 14000.338985 14000.338985 14000.338985 -0.002027 -0.002027 -0.002027 -0.002125 -0.003278 -0.006419 -0.001659 -0.001659 -0.001659 -0.001721 -0.002441 -0.004062 -0.001161 -0.001161 -0.001161 -0.001188 -0.001474 -0.001959 -0.000784 -0.000784 -0.000784 -0.000793 -0.000892 -0.001051 -0.000516 -0.000516 -0.000516 -0.000519 -0.000549 -0.000599 -0.000335 -0.000335 -0.000335 -0.000335 -0.000342 -0.000356 -0.000214 -0.000214 -0.000214 -0.000214 -0.000214 -0.000216 -0.000136 -0.000136 -0.000136 -0.000136 -0.000134 -0.000133 -0.000086 -0.000086 -0.000086 -0.000085 -0.000084 -0.000082 -0.000053 -0.000053 -0.000053 -0.000053 -0.000052 -0.000051 -0.000033 -0.000033 -0.000033 -0.000033 -0.000032 -0.000031 -0.000020 -0.000020 -0.000020 -0.000020 -0.000020 -0.000019 -0.000012 -0.000012 -0.000012 -0.000012 -0.000012 -0.000012 -0.000008 -0.000008 -0.000008 -0.000008 -0.000007 -0.000007 -0.000005 -0.000005 -0.000005 -0.000005 -0.000004 -0.000004 -0.000003 -0.000003 -0.000003 -0.000003 -0.000003 -0.000003 -0.000002 -0.000002 -0.000002 -0.000002 -0.000002 -0.000001 -0.000001 -0.000001 -0.000001 -0.000001 -0.000001 -0.000001 -0.000001 -0.000001 -0.000001 -0.000001 -0.000001 -0.000001 -0.000000 -0.000000 -0.000000 -0.000000 -0.000000 -0.000000 -0.000000 -0.000000 -0.000000 -0.000000 -0.000000 -0.000000 -0.000000 -0.000000 -0.000000 -0.000000 -0.000000 -0.000000 -0.000000 -0.000000 -0.000000 -0.000000 -0.000000 -0.000000 -0.000000 -0.000000 -0.000000 -0.000000 -0.000000 -0.000000 -0.000000 -0.000000 -0.000000 -0.000000 -0.000000 -0.000000 -0.000000 -0.000000 -0.000000 -0.000000 -0.000000 -0.000000 -0.000000 -0.000000 -0.000000 -0.000000 -0.000000 -0.000000 -0.000000 -0.000000 -0.000000 -0.000000 -0.000000 -0.000000 -0.000000 -0.000000 -0.000000 -0.000000 -0.000000 -0.000000 -0.000000 -0.000000 -0.000000 -0.000000 -0.000000 -0.000000 -0.000000 -0.000000 -0.000000 -0.000000 0.000000 -0.000000 0.000000 0.000000 0.000000 -0.000000 0.000000 0.000000 0.000000 0.000000 0.000000 -0.000000 0.000000 0.000000 0.000000 0.000000 0.000000 -0.000000 0.000000 0.000000 0.000000 0.000000 0.000000 -0.000000 0.000000 0.000000 0.000000 0.000000 0.000000 -0.000000 0.000000 0.000000 0.000000 0.000000 0.000000 -0.000000 0.000000 0.000000 0.000000 0.000000 0.000000 -0.000000 0.000000 0.000000 0.000000 0.000000 0.000000 0.000000 0.000000 0.000000 -0.000000 -0.000000 -0.000000 0.000000 -0.000000 0.000000 -0.000000 -0.000000 -0.000000 -0.000000 -0.000000 -0.000000 -0.000000 -0.000000 -0.000000 -0.000000 -0.000000 -0.000000 -0.000000 -0.000000 -0.000000 -0.000000 -0.000000 -0.000000 -0.000000 -0.000000 -0.000000 -0.000000 -0.000000 -0.000000 -0.000000 -0.000000 -0.000000 -0.000000 -0.000000 -0.000000 -0.000000 -0.000000 -0.000000 -0.000000 -0.000000 -0.000000 -0.000000 -0.000000 -0.000000 -0.000000 -0.000000 -0.000000 -0.000000 -0.000000 -0.000000 -0.000000 -0.000000 -0.000000 -0.000000 -0.000000 -0.000000 -0.000000 -0.000000 -0.000000 -0.000000 -0.000000 -0.000000 -0.000000 -0.000000 -0.000000 -0.000000 -0.000000 -0.000000 -0.000000 -0.000000 -0.000000 -0.000000 -0.000000 -0.000000 -0.000000 -0.000000 -0.000000 -0.000000 -0.000000 -0.000000 -0.000000 -0.000000 -0.000000 -0.000000 -0.000000 -0.000000 -0.000000 -0.000000 -0.000000 -0.000000 -0.000000 -0.000000 -0.000000 -0.000000 -0.000000 -0.000000 -0.000000 -0.000000 -0.000000 -0.000000 -0.000000 -0.000000 -0.000000 -0.000000 -0.000000 -0.000000 -0.000000 -0.000000 -0.000000 -0.000000 -0.000000 -0.000000 -0.000000 -0.000000 -0.000000 -0.000000 -0.000000 -0.000000 -0.000000 -0.000000 -0.000000 -0.000000 -0.000000 -0.000000 -0.000000 -0.000000 -0.000000 -0.000000 -0.000000 -0.000000 -0.000000 -0.000000 -0.000000 -0.000000 -0.000000 -0.000000 -0.000000 -0.000000 -0.000000 -0.000000 -0.000000 -0.000000 -0.000000 -0.000000 -0.000000 -0.000000 -0.000000 -0.000000 -0.000000 -0.000000 -0.000000 -0.000000 -0.000000 -0.000000 -0.000000 -0.000000 -0.000000 -0.000000 -0.000000 -0.000000 -0.000000 -0.000000 -0.000000 -0.000000 -0.000000 -0.000000 -0.000000 -0.000000 -0.000000 -0.000000 -0.000000 -0.000000 -0.000000 -0.000000 -0.000000 -0.000000 -0.000000 -0.000000 -0.000000 -0.000000 -0.000000 -0.000000 -0.000000 -0.000000 -0.000000 -0.000000 -0.000000 -0.000000 -0.000000 -0.000000 -0.000000 -0.000000 -0.000000 -0.000000 -0.000000 -0.000000 -0.000000 -0.000000 -0.000000 -0.000000 -0.000000 -0.000000 -0.000000 -0.000000 -0.000000 -0.000000 -0.000000 -0.000000 -0.000000 -0.000000 -0.000000 -0.000000 -0.000000 -0.000000 -0.000000 -0.000000 -0.000000 -0.000000 -0.000000 -0.000000 -0.000000 -0.000000 -0.000000 -0.000000 -0.000000 -0.000000 -0.000000 -0.000000 -0.000000 -0.000000 -0.000000 -0.000000 -0.000000 -0.000000 -0.000000 -0.000000 -0.000000 -0.000000 -0.000000 -0.000000 -0.000000 -0.000000 -0.000000 -0.000000 -0.000000 -0.000000 -0.000000 -0.000000 -0.000000 -0.000000 -0.000000 -0.000000 -0.000000 -0.000000 -0.000000 -0.000000 -0.000000 -0.000000 -0.000000 -0.000000 -0.000000 -0.000000 -0.000000 -0.000000 -0.000000 -0.000000 -0.000000 -0.000000 -0.000000 -0.000000 -0.000000 -0.000000 -0.000000 -0.000000 -0.000000 -0.000000 -0.000000 -0.000000 -0.000000 -0.000000 -0.000000 -0.000000 -0.000000 -0.000000 -0.000000 -0.000000 -0.000000 -0.000000 -0.000000 -0.000000 -0.000000 -0.000000 -0.000000 -0.000000 -0.000000 -0.000000 -0.000000 -0.000000 -0.000000 -0.000000 -0.000000 -0.000000 -0.000000 -0.000000 -0.000000 -0.000000 -0.000000 -0.000000 -0.000000 -0.000000 -0.000000 -0.000000 -0.000000 -0.000000 -0.000000 -0.000000 -0.000000 -0.000000 -0.000000 -0.000000 -0.000000 -0.000000 -0.000000 -0.000000 -0.000000 -0.000000 -0.000000 -0.000000 -0.000000 -0.000000 -0.000000 -0.000000 -0.000000 -0.000000 -0.000000 -0.000000 -0.000000 -0.000000 -0.000000 -0.000000 -0.000000 -0.000000 -0.000000 -0.000000 -0.000000 -0.000000 -0.000000 -0.000000 -0.000000 -0.000000 -0.000000 -0.000000 -0.000000 -0.000000 -0.000000 -0.000000 -0.000000 -0.000000 -0.000000 -0.000000 -0.000000 -0.000000 -0.000000 -0.000000 -0.000000 -0.000000 -0.000000 -0.000000 -0.000000 -0.000000 -0.000000 -0.000000 -0.000000 -0.000000 -0.000000 -0.000000 -0.000000 -0.000000 -0.000000 -0.000000 -0.000000 -0.000000 -0.000000 -0.000000 -0.000000 -0.000000 -0.000000 -0.000000 -0.000000 -0.000000 -0.000000 -0.000000 -0.000000 -0.000000 -0.000000 -0.000000 -0.000000 -0.000000 -0.000000 -0.000000 -0.000000 -0.000000 -0.000000 -0.000000 -0.000000 -0.000000 -0.000000 -0.000000 -0.000000 -0.000000 -0.000000 -0.000000 -0.000000 -0.000000 -0.000000 -0.000000 -0.000000 -0.000000 -0.000000 -0.000000 -0.000000 -0.000000 -0.000000 -0.000000 -0.000000 -0.000000 -0.000000 -0.000000 -0.000000 -0.000000 -0.000000 -0.000000 -0.000000 -0.000000 -0.000000 -0.000000 -0.000000 -0.000000 -0.000000 -0.000000 -0.000000 -0.000000 -0.000000 -0.000000 -0.000000 -0.000000 -0.000000 -0.000000 -0.000000 -0.000000 -0.000000 -0.000000 -0.000000 -0.000000 -0.000000 -0.000000 -0.000000 -0.000000 -0.000000 -0.000000 -0.000000 -0.000000 -0.000000 -0.000000 -0.000000 -0.000000 -0.000000 -0.000000 -0.000000 -0.000000 -0.000000 -0.000000 -0.000000 -0.000000 -0.000000 -0.000000 -0.000000 -0.000000 -0.000000 -0.000000 -0.000000 -0.000000 -0.000000 -0.000000 -0.000000 -0.000000 -0.000000 -0.000000 -0.000000 -0.000000 -0.000000 -0.000000 -0.000000 -0.000000 -0.000000 -0.000000 -0.000000 -0.000000 -0.000000 -0.000000 -0.000000 -0.000000 -0.000000 -0.000000 -0.000000 -0.000000 -0.000000 -0.000000 -0.000000 -0.000000 -0.000000 -0.000000 -0.000000 -0.000000 -0.000000 -0.000000 -0.000000 -0.000000 -0.000000 -0.000000 -0.000000 -0.000000 -0.000000 -0.000000 -0.000000 -0.000000 -0.000000 -0.000000 -0.000000 -0.000000 -0.000000 -0.000000 -0.000000 -0.000000 -0.000000 -0.000000 -0.000000 -0.000000 -0.000000 -0.000000 -0.000000 -0.000000 -0.000000 -0.000000 -0.000000 -0.000000 -0.000000 -0.000000 -0.000000 -0.000000 -0.000000 -0.000000 -0.000000 -0.000000 -0.000000 -0.000000 -0.000000 -0.000000 -0.000000 -0.000000 -0.000000 -0.000000 -0.000000 -0.000000 -0.000000 -0.000000 -0.000000 -0.000000 -0.000000 -0.000000 -0.000000 -0.000000 -0.000000 -0.000000 -0.000000 -0.000000 -0.000000 -0.000000 -0.000000 -0.000000 -0.000000 -0.000000 -0.000000 -0.000000 -0.000000 -0.000000 -0.000000 -0.000000 -0.000000 -0.000000 -0.000000 -0.000000 -0.000000 -0.000000 -0.000000 -0.000000 -0.000000 -0.000000 -0.000000 -0.000000 -0.000000 -0.000000 -0.000000 -0.000000 -0.000000 -0.000000 -0.000000 -0.000000 -0.000000 -0.000000 -0.000000 -0.000000 -0.000000 -0.000000 -0.000000 -0.000000 -0.000000 -0.000000 -0.000000 -0.000000 -0.000000 -0.000000 -0.000000 -0.000000 -0.000000 -0.000000 -0.000000 -0.000000 -0.000000 -0.000000 -0.000000 -0.000000 -0.000000 -0.000000 -0.000000 -0.000000 -0.000000 -0.000000 -0.000000 -0.000000 -0.000000 -0.000000 -0.000000 -0.000000 -0.000000 -0.000000 -0.000000 -0.000000 -0.000000 -0.000000 -0.000000 -0.000000 -0.000000 -0.000000 -0.000000 -0.000000 -0.000000 -0.000000 -0.000000 -0.000000 -0.000000 -0.000000 -0.000000 -0.000000 -0.000000 -0.000000 -0.000000 -0.000000 -0.000000 -0.000000 -0.000000 -0.000000 -0.000000 -0.000000 -0.000000 -0.000000 -0.000000 -0.000000 -0.000000 -0.000000 -0.000000 -0.000000 -0.000000 -0.000000 -0.000000 -0.000000 -0.000000 -0.000000 -0.000000 -0.000000 -0.000000 -0.000000 -0.000000 -0.000000 -0.000000 -0.000000 -0.000000 -0.000000 -0.000000 -0.000000 -0.000000 -0.000000 -0.000000 -0.000000 -0.000000 -0.000000 -0.000000 -0.000000 -0.000000 -0.000000 -0.000000 -0.000000 -0.000000 -0.000000 -0.000000 -0.000000 -0.000000 -0.000000 -0.000000 -0.000000 -0.000000 -0.000000 -0.000000 -0.000000 -0.000000 -0.000000 -0.000000 -0.000000 -0.000000 0.000000 -0.000000 -0.000000 -0.000000 -0.000000 -0.000000 -0.000000 -0.000000 -0.000000 -0.000000 -0.000000 -0.000000 -0.000000 -0.000000 -0.000000 -0.000000 -0.000000 -0.000000 -0.000000 -0.000000 -0.000000 -0.000000 -0.000000 -0.000000 -0.000000 -0.000000 -0.000000 -0.000000 -0.000000 -0.000000 -0.000000 -0.000000 -0.000000 -0.000000 -0.000000 -0.000000 -0.000000 -0.000000 -0.000000 -0.000000 -0.000000 -0.000000 -0.000000 -0.000000 -0.000000 -0.000000 -0.000000 -0.000000 -0.000000 -0.000000 -0.000000 -0.000000 -0.000000 -0.000000 -0.000000 -0.000000 -0.000000 -0.000000 -0.000000 -0.000000 -0.000000 -0.000000 -0.000000 -0.000000 -0.000000 -0.000000 -0.000000 -0.000000 -0.000000 -0.000000 -0.000000 -0.000000 -0.000000 -0.000000 -0.000000 -0.000000 -0.000000 -0.000000 -0.000000 -0.000000 -0.000000 -0.000000 -0.000000 -0.000000 -0.000000 -0.000000 -0.000000 -0.000000 -0.000000 -0.000000 -0.000000 -0.000000 -0.000000 -0.000000 -0.000000 -0.000000 -0.000000 -0.000000 -0.000000 -0.000000 -0.000000 -0.000000 -0.000000 -0.000000 -0.000000 -0.000000 -0.000000 -0.000000 -0.000000 -0.000000 -0.000000 -0.000000 -0.000000 -0.000000 -0.000000 -0.000000 -0.000000 -0.000000 -0.000000 -0.000000 -0.000000 -0.000000 -0.000000 -0.000000 -0.000000 -0.000000 -0.000000 -0.000000 -0.000000 -0.000000 -0.000000 -0.000000 -0.000000 -0.000000 -0.000000 -0.000000 -0.000000 -0.000000 -0.000000 -0.000000 -0.000000 -0.000000 -0.000000 -0.000000 -0.000000 -0.000000 -0.000000 -0.000000 -0.000000 -0.000000 -0.000000 -0.000000 -0.000000 -0.000000 -0.000000 -0.000000 -0.000000 -0.000000 -0.000000 -0.000000 -0.000000 -0.000000 -0.000000 -0.000000 -0.000000 -0.000000 -0.000000 -0.000000 -0.000000 -0.000000 -0.000000 -0.000000 -0.000000 -0.000000 -0.000000 -0.000000 -0.000000 -0.000000 -0.000000 -0.000000 -0.000000 -0.000000 -0.000000 -0.000000 -0.000000 -0.000000 -0.000000 -0.000000 -0.000000 -0.000000 -0.000000 -0.000000 -0.000000 -0.000000 -0.000000 -0.000000 -0.000000 -0.000000 -0.000000 -0.000000 -0.000000 -0.000000 -0.000000 -0.000000 -0.000000 -0.000000 -0.000000 -0.000000 -0.000000 -0.000000 -0.000000 -0.000000 -0.000000 -0.000000 -0.000000 -0.000000 -0.000000 -0.000000 -0.000000 -0.000000 -0.000000 0.000000 -0.000000 -0.000000 -0.000000 -0.000000 -0.000000 -0.000000 -0.000000 -0.000000 -0.000000 -0.000000 -0.000000 -0.000000 -0.000000 -0.000000 0.000000 0.000000 0.000000 0.000000 -0.000000 -0.000000 -0.000000 -0.000000 -0.000000 -0.000000 -0.000000 -0.000000 -0.000000 -0.000000 -0.000000 -0.000001 -0.000001 -0.000002 -0.000003 -0.000005 -0.000007 -0.000012 -0.000018 -0.000029 -0.000045 -0.000069 -0.000106 -0.000161 -0.000241 -0.000359 -0.000528 -0.000771 -0.001114 -0.001592 -0.002251 -0.003146 -0.004344 -0.005919 -0.007951 -0.010512 -0.013649 -0.017353 -0.021511 -0.025830 -0.029723 -0.032151 -0.031384 -0.024688 -0.007871 0.025309 0.083939 0.181000 0.334698 0.570183 0.921671 1.435085 2.171240 3.209656 4.653033 6.632423 9.313095 12.901085 17.650348 23.870386 31.934122 42.285591 55.446790 72.022588 92.702204 118.255343 149.521227 187.389939 232.778749 286.612250 349.824357 423.410182 508.558908 606.879476 720.667416 853.042421 1007.621996 1186.999640 1387.227418 1577.542148 1646.415626 1222.882943 149.665996 -5.233229 932.362200 945.658544 1243.358330 1102.481228 1772.012466 1758.036730 3308.806491 2923.659419 3404.131316 4426.318857 4867.661525 5107.545335 5436.131301 5121.888907 7425.214327 6552.001488 8349.349780 9029.349232 9325.336029 12363.109428 13111.423814 13111.423814 13111.423814 0.000000 0.000000 0.000000 0.000000 -0.000000 -0.000000 -0.000000 -0.000000 -0.000000 -0.000000 -0.000000 -0.000000 -0.000000 -0.000000 -0.000000 -0.000001 -0.000001 -0.000002 -0.000003 -0.000005 -0.000008 -0.000012 -0.000019 -0.000030 -0.000046 -0.000071 -0.000109 -0.000164 -0.000246 -0.000366 -0.000539 -0.000785 -0.001133 -0.001618 -0.002285 -0.003190 -0.004399 -0.005986 -0.008029 -0.010598 -0.013735 -0.017424 -0.021541 -0.025777 -0.029522 -0.031702 -0.030542 -0.023240 -0.005520 0.028977 0.089492 0.189200 0.346561 0.587035 0.945226 1.467525 2.215309 3.268757 4.731332 6.734948 9.445842 13.071103 17.865810 24.140630 32.269623 42.697842 55.948027 72.625290 93.418315 119.095223 150.492477 188.496518 234.021101 287.989339 351.337988 425.069921 510.381330 608.868973 722.762563 855.025258 1009.047995 1187.469357 1388.670999 1596.278057 1754.167247 1772.741427 1684.069613 1701.915941 2079.647127 2409.387855 2948.583702 3373.383910 4036.595595 4770.394089 5600.806845 5359.124381 5705.436649 6650.343815 7203.228190 7466.863813 7694.346630 7366.354756 7764.628570 6811.317679 7747.631994 8779.299519 10319.997090 12533.605359 12969.172482 12969.172482 12969.172482 0.000000 0.000000 0.000000 -0.000000 -0.000000 -0.000000 -0.000000 -0.000000 -0.000000 -0.000000 -0.000000 -0.000000 -0.000000 -0.000000 -0.000000 -0.000001 -0.000001 -0.000002 -0.000003 -0.000005 -0.000008 -0.000012 -0.000020 -0.000031 -0.000048 -0.000073 -0.000112 -0.000169 -0.000253 -0.000375 -0.000551 -0.000802 -0.001156 -0.001649 -0.002325 -0.003241 -0.004463 -0.006064 -0.008119 -0.010695 -0.013831 -0.017501 -0.021570 -0.025707 -0.029278 -0.031167 -0.029546 -0.021539 -0.002768 0.033260 0.095962 0.198739 0.360339 0.606582 0.972517 1.505074 2.266272 3.337045 4.821729 6.853229 9.598884 13.266989 18.113907 24.451624 32.655491 43.171705 56.523817 73.317171 94.239787 120.057926 151.604898 189.763084 235.442529 289.565292 353.072582 426.978391 512.491320 611.203108 725.285765 857.554382 1011.184645 1188.883991 1391.347218 1614.803802 1849.262189 2086.016326 2340.880305 2665.187408 3092.985763 3609.789472 4213.068153 4881.722819 5602.662017 6351.085367 7069.299266 7700.126214 8348.013204 9016.695290 9587.071064 10019.538993 10347.762842 10585.197385 10811.619809 10881.105817 11241.516780 11692.243623 12291.125727 12826.202998 12926.100328 12926.100328 12926.100328 -0.000000 -0.000000 -0.000000 -0.000000 -0.000000 -0.000000 -0.000000 -0.000000 -0.000000 -0.000000 -0.000000 -0.000000 -0.000000 -0.000000 -0.000000 -0.000001 -0.000001 -0.000002 -0.000003 -0.000005 -0.000008 -0.000012 -0.000020 -0.000031 -0.000048 -0.000074 -0.000112 -0.000170 -0.000254 -0.000377 -0.000553 -0.000805 -0.001160 -0.001654 -0.002332 -0.003250 -0.004474 -0.006077 -0.008135 -0.010713 -0.013848 -0.017515 -0.021574 -0.025694 -0.029232 -0.031068 -0.029364 -0.021230 -0.002268 0.034037 0.097134 0.200465 0.362830 0.610113 0.977444 1.511848 2.275461 3.349352 4.838013 6.874527 9.626430 13.302233 18.158529 24.507540 32.724847 43.256847 56.627235 73.441393 94.387214 120.230622 151.804363 189.990107 235.697264 289.847774 353.383768 427.321453 512.872076 611.627308 725.750430 858.032777 1011.615108 1189.216587 1391.898617 1617.792029 1862.578040 2125.746248 2421.933765 2781.619480 3228.225221 3762.191975 4378.071652 5059.539769 5788.270650 6539.393528 7274.384261 7967.832681 8651.250075 9310.843570 9879.962178 10332.816842 10693.816315 10991.794549 11245.886106 11482.815443 11800.044058 12173.131228 12565.220775 12861.413529 12921.410222 12921.410222 12921.410222 -0.000000 -0.000000 -0.000000 -0.000000 -0.000000 -0.000000 -0.000000 -0.000000 -0.000000 -0.000000 -0.000000 -0.000000 -0.000000 -0.000000 -0.000000 -0.000001 -0.000001 -0.000002 -0.000003 -0.000005 -0.000008 -0.000012 -0.000020 -0.000031 -0.000048 -0.000074 -0.000112 -0.000170 -0.000254 -0.000377 -0.000553 -0.000805 -0.001160 -0.001654 -0.002332 -0.003250 -0.004474 -0.006077 -0.008135 -0.010713 -0.013848 -0.017515 -0.021574 -0.025694 -0.029232 -0.031068 -0.029364 -0.021230 -0.002268 0.034037 0.097134 0.200465 0.362830 0.610113 0.977444 1.511848 2.275461 3.349352 4.838013 6.874527 9.626430 13.302233 18.158529 24.507540 32.724847 43.256847 56.627235 73.441393 94.387214 120.230622 151.804363 189.990107 235.697264 289.847774 353.383768 427.321453 512.872076 611.627308 725.750430 858.032777 1011.615108 1189.216587 1391.898617 1617.792029 1862.578040 2125.746248 2421.933765 2781.619480 3228.225221 3762.191975 4378.071652 5059.539769 5788.270650 6539.393528 7274.384261 7967.832681 8651.250075 9310.843570 9879.962178 10332.816842 10693.816315 10991.794549 11245.886106 11482.815443 11800.044058 12173.131228 12565.220775 12861.413529 12921.410222 12921.410222 12921.410222 -0.000000 -0.000000 -0.000000 -0.000000 -0.000000 -0.000000 -0.000000 -0.000000 -0.000000 -0.000000 -0.000000 -0.000000 -0.000000 -0.000000 -0.000000 -0.000001 -0.000001 -0.000002 -0.000003 -0.000005 -0.000008 -0.000012 -0.000020 -0.000031 -0.000048 -0.000074 -0.000112 -0.000170 -0.000254 -0.000377 -0.000553 -0.000805 -0.001160 -0.001654 -0.002332 -0.003250 -0.004474 -0.006077 -0.008135 -0.010713 -0.013848 -0.017515 -0.021574 -0.025694 -0.029232 -0.031068 -0.029364 -0.021230 -0.002268 0.034037 0.097134 0.200465 0.362830 0.610113 0.977444 1.511848 2.275461 3.349352 4.838013 6.874527 9.626430 13.302233 18.158529 24.507540 32.724847 43.256847 56.627235 73.441393 94.387214 120.230622 151.804363 189.990107 235.697264 289.847774 353.383768 427.321453 512.872076 611.627308 725.750430 858.032777 1011.615108 1189.216587 1391.898617 1617.792029 1862.578040 2125.746248 2421.933765 2781.619480 3228.225221 3762.191975 4378.071652 5059.539769 5788.270650 6539.393528 7274.384261 7967.832681 8651.250075 9310.843570 9879.962178 10332.816842 10693.816315 10991.794549 11245.886106 11482.815443 11800.044058 12173.131228 12565.220775 12861.413529 12921.410222 12921.410222 12921.410222 -1345.535633 -1553.338172 -1919.167431 -2318.459850 -1113.946585 217.454481 -630.560463 -1391.171775 164.161260 1341.036893 280.597908 -875.381258 -1680.605236 203.513332 1440.090335 -246.356445 -1973.754524 -428.560570 1841.871069 -231.799197 -1823.778552 971.498275 2228.271632 651.805553 -764.495726 -2003.015792 309.796227 2268.325576 793.329368 -885.008842 -2302.050553 631.624361 2666.216994 432.186633 -2021.767831 48.103286 4411.163489 4805.031598 5411.293068 4631.010945 6102.850078 9265.256188 8294.273576 11205.236059 12761.146551 14113.573120 14182.042059 19231.238257 16776.050838 13534.020903 14227.938623 14220.287985 14084.616541 13991.248245 13991.248245 13991.248245 -2065.659000 145.313044 -349.046825 11721.856418 14639.427132 19431.506915 12818.298312 15689.851564 18180.506378 15217.221482 20535.454040 20163.937468 17767.544780 15746.495819 19763.125831 17673.132816 11501.069216 12178.188314 16846.682858 20913.389574 17350.488373 16675.250423 14044.097817 10611.424925 11949.901485 17222.410005 15467.440635 17675.736466 16038.717451 17375.553048 10889.004192 15257.793875 16141.878410 14243.900349 9431.619645 15282.739173 17753.246718 14173.845891 16743.714820 13346.849509 14181.005230 15178.773638 13779.582389 17261.845340 14087.616956 13217.881081 16411.239763 17084.068876 15254.994704 11951.932610 16950.098020 14878.062780 14088.546565 13974.459646 13974.459646 13974.459646 141.679532 106.916548 807.455088 844.509650 9529.761929 13659.904138 15641.937170 17031.139133 11948.532570 17277.284321 15788.278913 10509.739428 11887.267702 14760.956075 12193.026423 13928.989207 10993.023974 14729.153244 12165.857196 19558.967025 16871.796794 18479.931855 16796.219589 14292.640873 14789.442495 14500.081971 14412.014127 15968.929585 13281.858035 16134.956328 12954.617308 15839.367863 13328.612450 13593.482727 15401.110101 13897.183266 14045.278500 13447.033137 12023.660637 14232.698738 16219.585913 14249.370071 14155.236285 15902.085537 13031.990297 15221.366821 15439.739119 14435.317228 14573.739977 16756.151111 11462.928794 11795.790834 13918.600311 13995.887945 13995.887945 13995.887945 -271.362072 -487.372230 5777.208363 3972.116662 4817.184757 1221.878253 8690.559239 4396.469651 14945.116287 10344.378626 11334.963512 17678.298016 10203.867903 10846.234460 11824.315498 10805.058044 10915.957310 10273.867611 11086.516638 11761.212097 11631.359688 7742.160887 11054.418850 15164.258064 13594.949219 11043.468208 11488.262058 12213.483069 16697.468440 14608.927147 13063.201985 13246.743555 16724.597760 15628.023391 13668.000613 14177.844443 13695.378705 13288.030627 14464.081923 13496.615891 12010.271702 13014.461747 14306.601081 17450.042778 14805.520271 16588.242464 17839.678047 17861.991712 13116.688562 17937.472105 14572.202087 11865.454766 13842.803226 14074.796647 14074.796647 14074.796647 2406.631802 964.585172 222.140625 4050.952890 1749.352402 4947.594619 2289.913760 7964.751419 4103.820630 10812.004061 4475.016895 5509.504360 8163.171492 13244.842129 9683.776638 13531.264565 7373.439313 6006.951175 9611.158005 6805.983638 3992.755130 6855.840379 13414.688974 