<VTKFile type="PolyData">
<PolyData>
<Piece NumberOfPoints="2177" NumberOfVerts="2177" NumberOfLines="0" NumberOfStrips="0" NumberOfPolys="0">
<PointData>
<DataArray type="Float64" Name="Pressure" format="ascii">
 14242.425644 14034.451832 13607.939514 12989.545129 12175.933377 11192.393406 10144.425332 9072.837194 7949.163724 6801.470091 5697.521097 4689.806676 3794.840495 2990.705204 2250.955260 1589.192142 1024.974712 556.689108 169.107069 -153.637982 -423.787754 -650.606991 -841.613598 -1003.103473 -1140.261708 -1257.375290 -1358.426634 -1447.812044 -1529.173304 -1601.830878 -1661.798573 -1706.240486 -1734.202573 -1745.792246 -1741.705124 -1723.020627 -1691.093770 -1647.470028 -1593.805682 -1531.793574 -1463.097967 -1389.301708 -1311.867231 -1232.111381 -1151.192857 -1070.110635 -989.712385 -910.715218 -833.751813 -759.487104 -688.939923 -624.214940 -569.386762 -529.140416 -504.821624 -494.402622 14365.692041 14148.165464 13749.443961 13172.133145 12361.183388 11316.282651 10244.058374 9217.061275 8102.923617 6924.012309 5751.650896 4682.513406 3795.280077 3045.770052 2304.822818 1614.062986 1034.613004 561.096396 171.839042 -151.434097 -421.847329 -648.895567 -840.078099 -1001.581438 -1138.387398 -1254.377364 -1352.939610 -1438.885115 -1521.289413 -1598.121156 -1660.294904 -1705.569465 -1733.809334 -1745.497225 -1741.454880 -1722.801207 -1690.902628 -1647.307225 -1593.671237 -1531.686776 -1463.017330 -1389.245115 -1311.832113 -1232.094790 -1151.191223 -1070.118544 -989.718279 -910.687241 -833.592527 -758.895869 -687.027464 -619.193399 -559.647995 -518.577086 -496.085371 -487.337988 14552.555776 14422.423197 14178.758828 13075.322756 11990.666884 11300.293154 10087.001847 8940.263476 7853.601706 6959.179767 5741.316691 4623.266530 3765.588479 3286.219952 2450.862837 1666.628023 1047.890400 565.998783 174.648737 -149.220983 -419.900206 -647.166438 -838.507315 -999.986007 -1136.327709 -1250.795109 -1345.078783 -1421.092276 -1503.384389 -1593.174322 -1659.175451 -1705.432852 -1733.954228 -1745.715781 -1741.681560 -1723.013358 -1691.091526 -1647.469334 -1593.805465 -1531.793498 -1463.097915 -1389.301598 -1311.866892 -1232.110281 -1151.189270 -1070.098932 -989.674204 -910.590658 -833.345553 -758.160420 -684.645931 -609.489496 -537.081132 -498.217780 -481.030036 -475.487001 -492.068531 -474.029865 -466.823579 -445.892984 -439.357778 -435.786308 -398.048443 -396.478827 -395.049543 -356.938232 -356.509589 -356.011491 -319.741824 -319.647673 -319.457226 -285.824163 -285.827779 -285.736691 -254.880744 -254.912280 -254.853866 -226.709576 -226.747775 -226.701317 -201.135551 -201.173899 -201.133013 -177.990373 -178.026882 -177.989593 -157.108063 -157.142153 -157.107823 -138.324965 -138.356508 -138.324892 -121.480894 -121.509913 -121.480871 -106.420406 -106.446983 -106.420399 -92.993916 -93.018159 -92.993914 -81.058584 -81.080614 -81.058583 -70.478966 -70.498913 -70.478965 -61.127464 -61.145463 -61.127464 -52.884584 -52.900770 -52.884584 -45.639040 -45.653547 -45.639040 -39.287723 -39.300683 -39.287723 -33.735564 -33.747106 -33.735564 -28.895311 -28.905556 -28.895311 -24.687232 -24.696299 -24.687232 -21.038780 -21.046780 -21.038780 -17.884206 -17.891242 -17.884206 -15.164158 -15.170328 -15.164158 -12.825267 -12.830662 -12.825267 -10.819722 -10.824425 -10.819722 -9.104854 -9.108942 -9.104854 -7.642722 -7.646266 -7.642722 -6.399721 -6.402784 -6.399721 -5.346194 -5.348835 -5.346194 -4.456077 -4.458349 -4.456077 -3.706555 -3.708505 -3.706555 -3.077746 -3.079417 -3.077746 -2.552407 -2.553837 -2.552407 -2.115666 -2.116891 -2.115666 -1.754781 -1.755830 -1.754781 -1.458914 -1.459815 -1.458914 -1.218941 -1.219719 -1.218941 -1.027278 -1.027957 -1.027278 -0.877737 -0.878336 -0.877737 -0.765396 -0.765935 -0.765396 -0.686504 -0.686999 -0.686504 -0.638391 -0.638861 -0.638391 -0.619420 -0.619879 -0.619420 -0.628939 -0.629403 -0.628939 -0.667270 -0.667755 -0.667270 -0.735709 -0.736231 -0.735709 -0.836551 -0.837127 -0.836551 -0.973128 -0.973776 -0.973128 -1.149878 -1.150617 -1.149878 -1.372421 -1.373271 -1.372421 -1.647662 -1.648646 -1.647662 -1.983914 -1.985058 -1.983914 -2.391035 -2.392366 -2.391035 -2.880588 -2.882137 -2.880588 -3.466021 -3.467821 -3.466021 -4.162854 -4.164943 -4.162854 -4.988902 -4.991320 -4.988902 -5.964492 -5.967284 -5.964492 -7.112713 -7.115928 -7.112713 -8.459663 -8.463354 -8.459663 -10.034718 -10.038943 -10.034718 -11.870796 -11.875617 -11.870796 -14.004635 -14.010118 -14.004635 -16.477057 -16.483273 -16.477057 -19.333234 -19.340259 -19.333234 -22.622942 -22.630854 -22.622942 -26.400785 -26.409666 -26.400785 -30.726402 -30.736338 -30.726402 -35.664634 -35.675711 -35.664634 -41.285646 -41.297954 -41.285646 -47.664997 -47.678624 -47.664997 -54.883638 -54.898671 -54.883638 -63.027840 -63.044364 -63.027840 -72.189031 -72.207127 -72.189031 -82.463529 -82.483274 -82.463529 -93.952174 -93.973633 -93.952174 -106.759819 -106.783052 -106.759819 -120.994703 -121.019753 -120.994703 -136.767666 -136.794565 -136.767666 -154.191217 -154.219978 -154.191217 -173.378438 -173.409053 -173.378438 -194.441714 -194.474153 -194.441713 -217.491299 -217.525505 -217.491295 -242.633697 -242.669583 -242.633686 -269.969884 -270.007324 -269.969846 -299.593347 -299.632161 -299.593224 -331.587992 -331.627896 -331.587590 -366.025949 -366.066404 -366.024644 -402.965474 -403.005194 -402.961237 -442.449451 -442.484820 -442.435693 -484.506252 -484.526151 -484.461588 -529.158560 -529.127312 -529.013572 -576.459430 -576.258756 -575.988742 -626.614893 -625.840218 -625.088073 -680.621917 -677.650994 -675.645217 -739.016864 -727.971342 -723.324100 -769.104131 -751.373999 -743.700600 15355.692473 14765.678515 14235.137949 14156.402361 11396.034795 11337.138067 10754.499773 7810.735177 8353.868886 8735.398112 3277.982243 2589.301611 3810.099775 -3492.819689 -3159.847562 -480.864481 -245.768998 -247.482951 -145.676494 -9.902806 78.099529 84.993200 8.599576 -137.996083 -335.104423 -560.984039 -794.607706 -1017.814384 -1216.989554 -1383.907990 -1515.512347 -1612.817067 -1679.407339 -1720.006297 -1739.402978 -1741.822267 -1730.672655 -1708.548179 -1677.363359 -1638.531160 -1593.130206 -1542.036736 -1486.016093 -1425.778734 -1362.009470 -1295.378338 -1226.538529 -1156.110616 -1084.637128 -1012.441422 -939.226685 -861.159428 -790.738822 -760.282142 -747.231816 -742.615242 15455.478067 14927.728579 14188.397265 13902.818636 12271.316771 10866.587828 9565.233472 8271.354213 8492.763158 8172.163385 5809.912900 4536.516668 3765.471878 1459.521240 511.519938 171.290255 -51.167847 -152.164336 -89.390330 22.085401 95.316850 93.858128 12.992256 -135.868869 -334.027614 -560.313455 -794.031826 -1017.216493 -1216.359175 -1383.280165 -1514.928929 -1612.307233 -1678.982526 -1719.663379 -1739.130292 -1741.605171 -1730.497283 -1708.403313 -1677.240914 -1638.425872 -1593.038974 -1541.957935 -1485.949036 -1425.723395 -1361.966718 -1295.351438 -1226.538470 -1156.173797 -1084.883683 -1013.276045 -941.985847 -872.202472 -810.930361 -774.804054 -757.167477 -750.592547 15538.791980 15129.421270 14375.191978 13592.277804 12768.846778 12071.389431 11336.054315 10389.804675 9560.842247 8546.733260 7068.834102 5533.257912 4221.888117 2820.169936 1535.117943 621.295238 106.872743 -64.825390 -34.215341 55.813982 115.227821 105.433210 19.660008 -132.099742 -332.009539 -559.388567 -793.802978 -1017.419016 -1216.801111 -1383.821114 -1515.473668 -1612.800440 -1679.400432 -1720.003522 -1739.401899 -1741.821861 -1730.672507 -1708.548128 -1677.363345 -1638.531167 -1593.130244 -1542.036863 -1486.016510 -1425.780092 -1362.013889 -1295.392721 -1226.585336 -1156.262948 -1085.132767 -1014.056878 -944.430621 -879.256281 -824.324609 -786.420599 -765.226108 -756.674713 14687.359759 14759.249335 14567.245359 12566.008566 11522.931439 10926.424303 9114.934612 7729.576287 6998.671287 6870.034966 5273.026186 4492.884628 3720.677937 3829.509691 2801.736655 1689.434759 1051.090351 566.376753 174.659415 -149.222389 -419.868862 -647.110719 -838.424650 -999.840375 -1136.009955 -1249.989510 -1342.486490 -1411.913168 15046.139606 15432.383054 14916.667399 16538.563705 13398.394632 13985.693934 14978.054000 15766.448465 15602.574535 16761.964819 16839.536391 17234.749735 18676.244422 14131.822455 15722.801683 14564.999178 9780.794475 16644.392921 12565.432223 16793.091589 15719.528666 16042.139503 14399.854570 13027.094407 10700.042498 13877.687287 4610.828574 5337.691423 15421.941218 15420.909885 14290.826778 13720.558970 12464.127016 14665.002768 11829.466298 14828.800709 13320.391480 12228.118241 12253.883448 12494.922444 14048.194125 10940.229648 11751.506574 15766.645963 12488.244074 13943.851909 15242.672779 9442.595512 15286.302177 22020.026936 15443.272765 13553.700399 14734.790368 14564.269630 12380.541039 9463.280880 15764.355840 14759.629321 11970.302949 12755.586953 17267.203415 9015.693530 14950.044764 15689.319841 14373.305538 12430.083047 4651.767631 10847.919009 14854.161781 13587.724904 13282.237745 13569.051775 12298.716791 13048.124526 14755.584067 11073.999543 14605.493637 7643.806610 6116.460731 12875.169446 14475.654158 7585.522437 14530.518116 9546.240339 15954.707901 14659.542375 11963.402657 17679.616758 9742.813566 15532.257329 10309.145491 4211.845239 17761.201184 7383.902558 8731.556235 14028.985342 15680.668300 11820.546059 3620.250254 7775.880767 15194.817546 9498.595735 12077.332405 10336.047015 4743.718265 12983.078063 11614.640911 6460.086081 5621.760625 7752.772759 2196.271960 6525.809479 15900.057911 16388.637021 18533.724026 20927.011733 14867.803826 15715.101076 19609.166430 11356.710713 13292.960748 11896.608167 10982.927902 11469.376757 15359.863089 7209.592918 7257.370277 12875.617505 12162.454203 7449.136591 14441.490497 13064.697437 10154.381364 14718.178014 12205.188038 11073.143615 11445.887919 7615.087476 6234.589674 6337.485777 15993.467165 17112.237739 19654.875883 16883.014392 11257.476283 13662.479384 5007.052852 6739.900294 12054.639438 10417.309816 10844.735916 13545.687301 13406.838321 14445.236197 15983.930825 7402.465910 12156.012385 12196.509631 10214.803702 9333.744759 4120.955137 13149.698621 12350.985718 10477.062847 6905.968060 9566.794501 6907.470200 4181.683880 16264.420113 16738.662353 16944.335626 15972.911187 16335.148705 14212.664156 16035.887960 12743.283389 10073.988924 14988.154618 12188.478163 14894.800052 9592.946009 8091.619761 14727.805998 13108.821589 12569.775814 15358.436486 6974.506503 10534.847941 12774.238642 10210.586172 4432.707680 5425.062598 7827.510390 5234.386594 3175.581202 7785.649680 16341.648140 16590.710676 15467.763677 15245.478112 17925.019010 16527.429424 12006.603481 16562.349427 9735.409046 7474.785661 9110.474028 11051.819959 10085.659703 14157.169652 10498.724564 3455.542707 9848.422106 6037.384073 9755.906628 3670.317868 8642.120130 8666.102146 7798.922439 10075.448589 4999.536502 2685.634651 7889.557765 3854.220697 16379.694314 16815.985333 16152.254492 17513.335557 18385.371936 13513.898138 16593.485951 13291.137680 6155.662519 11687.219220 5366.429918 8733.281938 2240.883774 6686.262939 7677.072005 8178.965048 7396.562217 6068.376717 12656.699245 7803.399894 12070.784569 9929.630840 7519.103068 10108.643417 14708.099591 11851.641167 3724.512833 4153.105396 16430.015625 15654.840263 13750.314332 15221.692557 13526.918371 16546.220288 13711.162243 14902.653760 10081.352877 13363.903269 12892.016829 14246.212010 7729.840171 7571.133962 14700.806521 4746.447737 5220.776812 6358.556601 12378.555204 7650.965675 10385.004993 5972.925577 2933.265809 6001.852694 9687.924751 6446.947651 6783.877950 3553.269120 16395.894217 14759.769760 13735.298516 17118.270809 12890.456538 15326.919806 15229.726082 12660.594591 11435.831938 10010.655795 7316.826951 11809.749048 13943.391249 11362.293643 8940.617277 10129.257646 14949.804617 8506.787873 3400.183567 4136.136674 6380.536472 4519.305621 8772.195647 8148.391533 5043.027788 12828.524358 5167.244726 6067.147786 16418.766640 15655.756294 15323.641273 10986.721073 13668.172212 13667.638753 15051.572196 5752.332139 15100.831848 14259.719235 13435.444269 7910.159982 7797.287311 5936.399734 12379.226029 13008.057375 8309.063317 1954.156400 10390.691706 10130.082567 10992.972224 9601.273576 7587.679456 11653.182422 10483.658589 12994.269773 5184.286993 9159.449079 16633.430833 16168.321335 15462.829031 13767.119485 13604.053183 7864.645393 17171.296685 15239.342974 6568.417347 14102.375707 11815.231323 3815.729452 5838.709009 4290.589566 6807.227637 5691.396480 4169.887898 4422.355577 12081.241570 6627.473043 13787.080204 5760.485599 13308.880507 8376.875787 8448.714267 11792.314981 5845.260913 5526.221440 16736.489509 16918.097312 16056.403198 11632.722467 14713.538297 18052.581789 13909.958355 15663.299930 5010.347754 14166.126774 12035.434956 5040.278970 8817.591463 5075.711696 3802.883287 5543.960839 4381.956394 4994.525074 6798.091719 4753.199975 2753.194376 4682.310512 3884.986013 5195.111297 5908.578236 5566.767382 5974.578141 3361.760472 16625.828715 15969.374619 14992.204392 17471.731303 16256.757851 18346.742898 12587.132349 14077.373639 9885.711121 9703.459694 8330.361875 8403.619235 5365.634043 16521.606758 15170.853365 14086.402102 14423.001854 17926.305700 14888.035614 17738.923102 10899.117791 12084.545428 7996.609224 4679.936622 7602.336346 5504.423506 16615.788158 16582.881610 15684.213310 10328.953557 12079.263502 14305.900965 11052.577034 9459.684272 3196.868996 7926.371597 7221.981548 8228.448965 5360.435285 16803.771356 16532.695018 15050.387460 11319.299446 14443.033578 8568.140525 14404.837875 9943.385361 7010.361294 10002.764405 8179.377841 12558.103066 4381.786653 17113.563307 16568.080592 15741.485783 18412.925095 7660.528206 7874.058562 10727.584036 14303.462463 12332.614038 10464.010554 4837.612875 3904.034437 8576.739548 17450.095179 18621.769645 18933.196553 18756.153982 14736.552320 11760.668555 9501.527611 10193.250014 11191.274325 4584.613126 7928.018589 5519.570270 6065.100201 17542.284869 18493.705802 19365.810710 15949.481554 17653.529099 10778.208884 11804.985518 8901.181983 5014.640953 11007.401622 4770.530156 9722.426206 5499.166690 17409.130412 17388.102874 16594.917091 18220.684027 17386.329714 14994.960202 9256.164293 4671.064193 10835.506469 7654.486775 8170.124305 4592.963455 5891.091615 17251.565225 17842.122519 16373.810714 14171.941728 16657.130436 14700.000063 10482.741562 10334.250758 12339.330226 7460.666711 7972.796162 5766.506966 4045.592022 17047.925708 17930.500338 16006.417581 9112.972479 13458.752938 14760.842701 8033.794697 10780.487980 6417.564618 7565.416283 8670.098244 5616.596300 4772.042460 16961.354275 17103.842572 16014.271787 14842.659477 16169.671434 13874.922228 14960.539525 8340.048911 5338.734370 6158.815930 14989.241662 12467.784940 8195.091240 17138.018666 17066.822779 17439.002892 11657.610483 11928.036788 13705.546799 8900.993791 10822.667050 10020.545446 13496.641454 5857.423535 9570.811710 6024.314020 17466.022503 17464.659686 18433.429743 15392.425460 15869.079531 13139.618806 11494.844291 12883.830639 9780.809069 6805.197013 14882.916793 5113.482114 3132.345531 17759.544554 17755.391777 17763.628806 14925.697942 7733.459909 15222.805861 8338.815989 6188.889300 12084.794232 15184.927493 8431.953181 4823.483163 5798.916829 17755.549689 18217.139100 19799.811204 12544.507540 13952.124058 15583.642492 8999.438707 15388.423487 5090.365941 8847.292508 6264.161654 10339.275158 7157.612938 17534.628914 17567.859414 18413.587703 15344.669544 13067.520082 17280.717650 13471.218322 10398.913366 13772.414022 7831.291240 7300.306312 11242.674979 4727.567478 17571.049757 17822.780156 17758.521272 13210.611066 9177.117143 10722.889105 5683.221019 16559.744651 6525.288552 16356.770511 8197.441935 5512.172553 3472.131029 17587.359380 18127.299383 17960.636646 19787.263647 14216.079384 12828.228585 8698.995174 16983.256885 10006.871953 13833.542281 11923.352513 5255.535061 7332.528164 17514.564385 18960.038773 20877.509056 17712.317855 11871.756511 12088.822806 12163.482650 11889.096222 10903.922877 8152.898538 8548.765006 8721.194892 4555.283119 17674.262303 17946.655686 17854.114544 17497.378028 19585.512642 11036.137302 7954.507633 11172.225530 8728.050572 17055.252836 8188.800382 5020.289646 6270.790551 18044.642074 18447.959384 17402.913500 18711.461186 15689.179888 12297.439043 11584.951321 10015.632279 13102.132741 4706.358292 6855.981961 8801.942735 7038.540897 18213.584467 18305.738080 18300.232133 19676.622769 17560.526371 18503.731406 13117.911753 16120.576949 8712.349897 9726.176157 6800.711167 7126.846422 6516.335082 18318.968997 18408.020590 18296.056866 18438.172467 15251.707470 14711.253921 14537.448630 10458.948893 11693.803959 14156.252256 6477.342070 6062.213181 4168.467233 18578.524925 18969.456546 18251.976378 13920.306521 16204.274693 14158.438493 12096.034654 12832.404837 14619.892828 16796.665158 10836.029483 7033.135672 3565.849552 18689.487943 19270.362189 19635.583759 15558.717984 15528.514682 14524.031355 14985.075950 14076.898306 14502.830192 7938.532996 6534.342190 10733.001361 5211.237521 18675.900473 18574.329147 18252.132479 18699.743666 13974.593072 5496.370196 17337.192468 13092.938270 11834.894551 6020.781259 7470.969102 6699.222324 11663.594416 18770.406220 18377.412541 18749.044639 11010.654349 14928.846431 13040.383196 11932.818376 9223.350696 11473.738751 7549.018789 7756.449666 7620.646100 4018.659947 18906.044050 19055.847489 19307.850528 12387.836146 9979.859202 10072.329270 10144.690758 8205.427392 9604.848485 8566.205546 6622.399134 6112.476835 5408.852181 18978.399439 18915.126286 21034.160645 16128.566273 17098.595275 12551.623150 9958.647654 12103.614913 8782.445124 8344.846231 6542.756632 9070.152742 4638.139168 18951.652204 18787.207153 18834.528692 18628.387420 16235.540685 12213.743104 18794.512256 16455.560960 14134.675917 10153.580567 7275.442171 7197.740223 6315.296867 19178.370657 20609.107611 21197.109928 15371.736713 10822.024941 19213.403882 13874.928961 9750.967472 6763.860933 5603.641443 9242.702660 9233.862144 7212.854531 19342.402371 19043.436035 16518.959667 17292.823390 15201.104093 10175.240103 19658.124165 10259.890798 7594.839074 8498.868188 5922.444501 11336.760416 3302.186599 19359.814708 19565.973902 19581.423301 14769.617717 16069.409310 11655.076034 7148.722661 7278.231318 4788.503570 7393.470456 7066.450551 10773.943997 5265.120021 19205.587388 19403.995915 21953.903781 19653.368207 19033.017248 12986.903682 11366.553395 13841.077146 12838.257449 10018.780044 7520.214856 5142.061511 5322.228428 19305.030096 19777.496473 21937.695980 17638.446483 15363.771263 16111.983125 11143.909051 12254.696360 7659.282944 8326.430744 6326.640416 5734.366019 6322.929223 19550.268821 18320.071473 20366.486040 19128.754432 9043.266010 16892.339883 20041.949726 8708.760160 11854.338229 9171.194132 8736.977072 8466.878153 4947.134048 19847.960094 19507.072339 20587.395227 21171.751288 18373.440902 16066.737649 5865.859920 5051.591361 6203.273161 11958.804139 7329.720162 3719.967351 5707.436832 19938.114136 19359.979239 18697.922521 15442.416481 16951.466610 8345.039949 13504.423352 5504.622741 9170.257306 10156.765869 10265.010797 5020.179744 8735.735738 19906.749572 18971.979156 16679.766513 19478.334000 14395.028684 18045.394133 11207.287364 13730.950093 10962.930285 6053.151984 10943.700360 7177.521257 4184.743169 19841.205453 19670.426286 18092.091111 18514.322390 12860.111524 19365.392190 11586.387471 7778.877672 9082.933742 8974.584884 5844.430990 11072.304659 3552.399243 19799.445099 20244.355803 20098.528003 13647.783328 15903.346211 15379.724190 10004.059819 13028.713664 7779.629197 12506.849026 7159.126686 11016.383897 1750.163239 19748.145278 18817.864745 16422.447671 18989.994054 16265.873758 13954.825524 13100.758820 6247.162761 16854.635499 6302.762196 7802.732246 5240.577065 4265.100490 19958.139112 21299.418431 21143.622185 18883.441754 19405.974072 18230.715532 12179.312527 12404.843970 12216.992779 11560.576620 6017.954193 16653.348835 6740.579268 20087.760155 19748.910850 18049.392685 17211.813072 12246.921328 7243.845346 15072.347842 14580.182294 11653.171251 8450.528518 8660.650295 8969.048570 4280.619463 19988.112350 19541.381649 18798.159857 18934.939601 17143.548001 17930.924888 12013.533247 11964.337534 10248.175852 8368.887475 8697.558107 8906.038706 3270.714545 20108.226011 20944.113646 20926.023856 10344.356047 15455.517826 15447.490670 7763.641138 8710.566861 4383.551579 14272.855716 14552.096350 6782.922240 7055.001204 20020.451568 18122.886020 14326.279654 13117.176474 14893.750502 15953.715549 12474.346621 10855.963089 7360.432365 6391.877715 9440.834323 5781.920456 7520.727675 19572.332796 15907.914389 11178.324561 16768.753427 12376.150678 14495.971231 11330.342461 7662.048394 3473.650855 10875.851595 4397.343465 7211.775126 4710.658575 19301.676096 19872.276143 18929.419111 18086.376488 10527.077397 16334.670629 7874.102952 7299.864729 8978.797375 9278.801474 6370.303041 6192.947510 5367.669952 19560.730542 22304.642180 23597.375293 15017.159601 15623.535640 9000.672594 10958.471211 16153.755419 15311.539356 8169.695779 12213.463742 7683.738566 4214.263048 19825.249307 19988.742826 19075.419243 19254.061950 9983.821447 16217.419573 7920.631338 11432.909664 12311.217737 7606.426157 13729.656527 7426.208741 3377.919397 19395.497583 20167.605964 19309.196253 20039.667962 13708.380419 9868.501111 8743.333463 7462.019664 10834.604657 2843.826895 5463.492090 7346.502008 7415.541584 18671.127798 18815.948436 16249.337220 15279.122396 16596.378188 5254.875700 13026.944268 9903.656817 11877.545048 2870.278610 6081.153400 2957.088456 6193.548471 18217.145405 17619.377613 15859.208873 17885.881760 10735.537747 12049.106634 10855.497336 11125.781466 10050.040474 5204.309362 9863.426843 10934.882394 4275.867502 18387.272896 20642.198286 21055.911322 13310.287891 14750.364360 9790.017483 12533.246082 8520.782665 9110.276374 7356.683506 7254.790972 11983.721375 4123.942090 18204.734915 19311.456776 17447.797844 17005.479141 11316.874102 15831.775381 19724.691843 11254.678660 17046.128456 9148.919886 10103.907535 6537.691137 6044.521001 17493.824937 20431.359775 23633.667366 14485.889778 9982.049723 12559.681115 10848.047270 11217.180039 11268.954286 7372.925698 9381.348661 7032.858206 3821.082455 17486.207855 19196.238577 23217.781207 19520.040854 12419.254666 15833.650886 15893.362374 15404.551192 17000.605875 12075.350487 9274.779431 10346.942374 5264.959622 18229.781052 17594.990849 15530.645340 14475.075026 13332.254882 6217.704335 14015.708044 12680.323023 11863.562134 10104.939476 4990.654098 8289.122352 2394.944206 18549.704786 15180.864498 13079.710630 15713.415574 12992.102220 13366.989429 11107.246580 12539.284423 9040.055991 10734.009104 7750.810498 6928.938704 4316.327335 18455.588896 16273.700208 17128.657964 13782.108209 11355.042985 13909.804095 15705.805684 7970.116142 6627.756173 4324.754489 8012.251224 6456.929425 1962.704637 18108.812290 17578.249400 20335.609335 15085.143308 14418.151440 15865.189809 9217.154850 2037.115382 13342.820316 10007.856074 8546.205451 6085.254030 2951.326861 17924.866089 17923.048806 21169.074194 15167.035139 9368.414843 12623.563681 11521.421640 8009.980299 12550.490758 12755.763553 5300.182303 1509.051401 7905.445515 17912.842838 16338.366479 14166.407955 17137.779968 8111.822571 15924.531923 18660.014712 15344.582375 6827.844413 6891.767583 14398.118986 7389.406676 2479.889281 17928.322610 19539.333941 20137.307628 16168.112468 17635.514333 9027.646576 7430.427460 12021.249574 8087.824869 11535.651343 6532.865432 6781.993540 5673.805622 17905.419880 18963.722824 14813.640135 15769.446289 8203.612952 5276.178178 13893.810205 5326.037167 10494.080921 9696.565298 6446.431916 5664.123301 2530.596015 17817.293669 19457.096591 17590.019548 18441.963701 16345.718397 12890.433872 13823.540792 18355.053428 8336.199395 13387.551199 13867.978571 6085.542538 191.073062 18069.094630 19805.623555 17893.749557 17281.561858 14346.016004 14923.393092 14935.033070 9673.408555 8424.162058 7842.834741 7842.082203 9662.029081 4318.139859 18379.404567 17391.033331 10640.429018 12789.291332 8300.785354 10032.014110 12289.160261 7406.091844 10807.656881 14873.599448 4428.724395 7919.166655 2701.866930 18306.008643 14724.243872 8578.824177 16072.249393 13660.564824 11967.358861 11774.817244 14634.523706 17416.327575 10631.300685 8372.088991 6997.602253 1775.299028 17918.815072 17456.822609 16463.211166 10209.769179 16709.570896 6986.668456 14314.416942 12596.584157 10020.678455 10931.500424 3395.668713 10264.756074 1751.080640 17609.517729 17221.752640 15162.202162 17569.012283 10970.021529 8288.254505 12123.503111 8785.499494 12002.884981 10277.535087 8705.865081 1561.735766 9111.804623 17587.280610 16368.387639 10992.859537 11308.328047 15193.726748 16678.548276 12289.313959 15985.799642 18423.987867 12541.005461 12911.096159 14683.198858 4198.511606 17375.189380 16464.774719 11976.555643 15724.999965 11638.820972 16677.673187 14021.719688 10552.705344 12466.980704 11532.334371 11166.459784 4322.496800 2071.454357 16995.856533 16346.604043 17552.508450 14159.369146 11814.466599 10203.243935 16242.457939 13128.476079 11086.957955 5840.465403 3911.881290 9504.434689 8891.566600 16821.439747 16940.974088 20186.305062 11074.958072 16180.998260 17964.018951 8277.809703 12972.036529 10635.874664 11855.133998 14209.957897 7235.858193 4042.410048 16868.640743 15558.001895 14915.347228 20860.612574 12413.699932 14003.209193 17448.191717 10191.488276 11509.138545 9719.519677 9310.478770 2572.007973 5172.989510 17023.329481 15852.702160 15568.799214 16878.409167 12183.241592 10337.629533 11164.651516 10943.199584 8326.407816 8018.469276 9604.666977 11944.216657 5521.898282 17196.628832 16771.199353 16440.570090 14695.469133 16157.741116 16282.603343 12123.515665 8073.800362 13015.131506 5392.898084 7709.290350 5220.231367 4699.016792 17343.363621 16540.553602 15909.568698 8863.061932 16274.778744 14930.038970 15867.396886 6790.058670 12275.613064 7738.482139 12400.906074 1921.754681 5515.445757 17168.646152 16890.090287 16531.160381 16131.622982 11825.865431 13271.211434 7527.815893 9737.968597 4795.115788 13170.009416 5158.742661 6941.464744 3945.463199 16753.318706 16766.386378 14366.810865 8212.620098 14899.060315 9816.081120 12760.217242 13212.983855 14999.186902 5665.506630 11383.309020 7991.453822 12108.023203 16341.843353 17634.701563 16380.530122 11753.674636 12443.062446 16299.777199 18783.252304 15768.959000 13273.122329 12406.250582 13000.455961 11308.521339 3771.684396 15794.838561 16530.521831 15636.096814 13182.327110 18067.632144 14708.210777 11856.571085 14691.062640 7745.407817 8593.704911 18978.699288 13778.269650 6787.062660 15380.749591 15368.965143 15273.877927 14318.572584 7467.519248 16795.124906 14774.953995 13069.943725 14506.077008 9163.150115 9919.900648 7699.051700 11485.321539 15355.692473 14765.678515 14235.137949 13960.215533 12978.574884 6086.892460 14578.680412 18706.607770 13227.378377 11755.486083 11589.875151 12875.706763 13374.510352
</DataArray>
<DataArray type="Float64" Name="Velocity" NumberOfComponents="3" format="ascii">