<VTKFile type="PolyData">
<PolyData>
<Piece NumberOfPoints="2177" NumberOfVerts="2177" NumberOfLines="0" NumberOfStrips="0" NumberOfPolys="0">
<PointData>
<DataArray type="Float64" Name="Pressure" format="ascii">
 14987.104710 14831.833917 14448.222973 13809.534060 12951.494169 11874.074993 10625.809463 9260.828758 7822.778444 6276.179921 4558.315642 2866.108530 1632.117639 959.065883 317.564863 -680.484004 -1520.067721 -1725.641499 -1576.675886 -1809.121699 -2723.473035 -3679.703407 -4186.492760 -4301.457655 -4206.672095 -4015.431976 -3781.334804 -3521.999466 -3239.864902 -2944.314419 -2653.310957 -2379.257834 -2126.914489 -1896.924824 -1688.069028 -1498.389060 -1325.784375 -1168.350284 -1024.545013 -893.226730 -773.600410 -665.116017 -567.354318 -479.926075 -402.398594 -334.253555 -274.873434 -223.551058 -179.518935 -142.005039 -110.349760 -84.238479 -63.956177 -49.957250 -41.795527 -38.317816 15050.309047 14933.806307 14575.019757 13999.597635 13212.338327 12040.721333 10757.355179 9304.440292 7821.004485 6335.200990 4475.851772 2421.954604 1174.177496 1097.276557 813.105408 -957.339334 -2155.243827 -1892.236106 -893.339782 -801.221914 -2586.593192 -3897.470775 -4358.924021 -4390.790449 -4250.898931 -4041.826406 -3806.584438 -3555.165392 -3268.390349 -2957.557175 -2658.385706 -2381.193867 -2127.793727 -1897.440380 -1688.441965 -1498.691189 -1326.042747 -1168.578787 -1024.752994 -893.420903 -773.785153 -665.293566 -567.525138 -480.089356 -402.552687 -334.396081 -275.000428 -223.653234 -179.568997 -141.918460 -109.874100 -82.887070 -61.379295 -47.455316 -40.014818 -37.049055 15181.388228 15192.806194 14694.072911 14347.200336 13853.831287 12063.425437 11487.726339 9293.844313 7836.076989 6594.281893 4671.014752 1329.971658 -264.157572 1806.558495 3081.436412 -2118.125907 -4104.189812 -2236.282080 497.569669 899.149952 -3010.477635 -4583.172656 -4610.874163 -4503.107687 -4303.094973 -4073.071315 -3841.026131 -3619.329124 -3334.041482 -2976.740413 -2663.289947 -2382.377217 -2127.886748 -1897.227836 -1688.163450 -1498.418495 -1325.793558 -1168.353153 -1024.545909 -893.227009 -773.600490 -665.116020 -567.354244 -479.925802 -402.397676 -334.250503 -274.863295 -223.517397 -179.407273 -141.634205 -109.131434 -79.961010 -55.028126 -42.526105 -36.992289 -34.952119 -41.790714 -36.200825 -33.733633 -31.648743 -29.702797 -28.494037 -23.106027 -22.638241 -22.185967 -17.171980 -17.048365 -16.892606 -12.749030 -12.722772 -12.664758 -9.414699 -9.414776 -9.389263 -6.902534 -6.908686 -6.894860 -5.020724 -5.027261 -5.018410 -3.621981 -3.627498 -3.621283 -2.591122 -2.595444 -2.590912 -1.838069 -1.841346 -1.838006 -1.292858 -1.295297 -1.292839 -0.901664 -0.903455 -0.901658 -0.623498 -0.624799 -0.623496 -0.427480 -0.428415 -0.427480 -0.290592 -0.291258 -0.290592 -0.195855 -0.196324 -0.195855 -0.130877 -0.131205 -0.130877 -0.086711 -0.086937 -0.086711 -0.056959 -0.057114 -0.056959 -0.037096 -0.037201 -0.037096 -0.023953 -0.024024 -0.023953 -0.015335 -0.015382 -0.015335 -0.009734 -0.009765 -0.009734 -0.006126 -0.006146 -0.006126 -0.003822 -0.003835 -0.003822 -0.002365 -0.002373 -0.002365 -0.001450 -0.001456 -0.001450 -0.000882 -0.000885 -0.000882 -0.000532 -0.000534 -0.000532 -0.000318 -0.000319 -0.000318 -0.000189 -0.000189 -0.000189 -0.000111 -0.000111 -0.000111 -0.000065 -0.000065 -0.000065 -0.000037 -0.000037 -0.000037 -0.000021 -0.000021 -0.000021 -0.000012 -0.000012 -0.000012 -0.000007 -0.000007 -0.000007 -0.000004 -0.000004 -0.000004 -0.000002 -0.000002 -0.000002 -0.000001 -0.000001 -0.000001 -0.000001 -0.000001 -0.000001 -0.000000 -0.000000 -0.000000 -0.000000 -0.000000 -0.000000 -0.000000 -0.000000 -0.000000 -0.000000 -0.000000 -0.000000 -0.000000 -0.000000 -0.000000 0.000000 0.000000 0.000000 0.000000 0.000000 0.000000 0.000000 0.000000 0.000000 0.000000 0.000000 0.000000 0.000001 0.000001 0.000001 0.000002 0.000002 0.000002 0.000003 0.000003 0.000003 0.000006 0.000006 0.000006 0.000012 0.000012 0.000012 0.000021 0.000021 0.000021 0.000039 0.000039 0.000039 0.000069 0.000069 0.000069 0.000122 0.000122 0.000122 0.000211 0.000212 0.000211 0.000361 0.000362 0.000361 0.000607 0.000609 0.000607 0.001004 0.001007 0.001004 0.001633 0.001638 0.001633 0.002610 0.002618 0.002610 0.004098 0.004109 0.004098 0.006314 0.006330 0.006314 0.009537 0.009559 0.009537 0.014104 0.014132 0.014104 0.020385 0.020419 0.020385 0.028726 0.028765 0.028726 0.039336 0.039374 0.039336 0.052087 0.052114 0.052087 0.066190 0.066188 0.066190 0.079694 0.079634 0.079694 0.088761 0.088597 0.088761 0.086627 0.086291 0.086627 0.062217 0.061611 0.062217 -0.001676 -0.002686 -0.001676 -0.130674 -0.132269 -0.130674 -0.361578 -0.363990 -0.361578 -0.745576 -0.749094 -0.745576 -1.351808 -1.356786 -1.351808 -2.271142 -2.277996 -2.271142 -3.619927 -3.629128 -3.619925 -5.543435 -5.555504 -5.543432 -8.218703 -8.234189 -8.218692 -11.856414 -11.875872 -11.856377 -16.701574 -16.725527 -16.701452 -23.032818 -23.061690 -23.032418 -31.160376 -31.194313 -31.159067 -41.423054 -41.461419 -41.418773 -54.185197 -54.224930 -54.171193 -69.836039 -69.866300 -69.790232 -88.798165 -88.782574 -88.648333 -111.566092 -111.382287 -111.075963 -138.840578 -138.068126 -137.238626 -172.143804 -169.147662 -166.881124 -213.621105 -202.320974 -196.927034 -237.892436 -218.905049 -210.323346 16330.183034 15788.396168 15397.200165 15684.652803 18735.569839 19856.058056 22095.657372 24489.611568 16948.622297 18275.271604 16980.566289 13352.567310 12626.616089 14588.465155 11443.929612 14149.002971 9376.820274 8910.773133 10241.800465 7731.595483 6683.390595 8401.418092 3904.146470 266.674525 5119.774277 3357.731928 -3639.517859 -5348.752087 817.963362 -2891.003284 42.706266 1225.227115 -2239.691207 -3070.393619 -3013.202809 -2829.491029 -2630.196224 -2427.283836 -2224.430596 -2024.591105 -1830.333810 -1643.783018 -1466.574710 -1299.845721 -1144.254735 -1000.029265 -867.029286 -744.812821 -632.675082 -529.583173 -433.832424 -339.982692 -261.172651 -228.485151 -214.381830 -208.892483 16186.882664 15743.549513 13360.580798 10280.040490 14102.809691 18594.360030 20528.612163 19939.329713 16497.329866 17143.975080 16761.480530 15122.006859 14887.901971 14909.017612 14070.426117 14308.714804 12888.520421 11174.089037 9815.914549 8240.073326 6839.546497 5602.749177 3542.291309 2197.128609 1834.856888 838.491431 -1004.902741 -1271.005493 240.914053 1184.913450 728.701387 -1229.833422 -2782.090222 -3130.461481 -3017.022249 -2829.588171 -2630.166743 -2427.300701 -2224.495044 -2024.696928 -1830.473391 -1643.948116 -1466.757078 -1300.037787 -1144.450524 -1000.226346 -867.234327 -745.059439 -633.082942 -530.563593 -436.752827 -351.498835 -281.028900 -241.013793 -221.641559 -214.127775 16150.571329 16204.109675 15893.854523 15760.521489 17754.975103 19204.432734 19312.264638 19026.460064 18313.841367 17768.662374 17244.525660 16407.232851 15826.023265 15451.560223 14922.904229 14341.663010 13404.253809 12055.282661 10592.666557 9102.850876 7526.956654 5859.179958 4218.277766 2985.347946 2086.497730 1146.700072 252.903371 -186.624341 -410.359470 -958.513385 -1829.250018 -2731.077845 -3168.786343 -3175.584833 -3020.477145 -2829.839792 -2630.209156 -2427.284311 -2224.430613 -2024.591117 -1830.333847 -1643.783139 -1466.575107 -1299.847026 -1144.259017 -1000.043320 -867.075406 -744.964129 -633.171254 -531.213046 -439.117815 -358.592864 -294.206975 -251.319956 -227.746687 -218.159311 15286.633595 15378.977184 14469.031211 14770.267672 14440.679226 11938.833754 12960.695033 9359.957674 7940.735675 6599.667105 5091.695566 643.261448 -2383.219812 2101.767862 5235.380807 -3118.568042 -5698.626579 -2456.407198 981.212376 1400.649330 -3222.327481 -4865.313831 -4697.015222 -4536.879459 -4318.036787 -4081.868183 -3852.468989 -3652.239738 15468.053933 15348.234931 13064.773862 13759.636493 15835.508867 14021.562254 15275.425498 17148.008017 15412.488403 15655.742252 15648.632426 12641.605856 14257.659265 15755.291905 15424.386973 15059.676825 13904.203213 12792.888573 14228.241863 17161.937595 15484.719853 13877.277931 13597.209814 12080.660815 12394.492931 14795.678834 9106.277760 399.082946 15387.392432 15231.189936 13070.077733 12205.844596 12929.640534 14177.080191 11982.825311 15241.577553 13597.554287 13175.790062 13488.844037 12769.635890 10011.128826 14535.332757 15153.776706 15449.945649 7368.803843 12513.093064 12678.775765 14722.680171 11506.910464 15698.304673 16384.555802 14906.487794 15914.436868 12652.664587 8639.249068 10278.730265 15196.441215 16070.500266 17617.360124 11663.913768 15984.475961 6124.961200 11428.360923 13592.986472 14676.510095 9417.386578 2427.786742 9391.471740 12128.302788 8595.742284 11075.792019 12351.224704 9276.710192 13678.208990 11722.946689 13369.080217 11487.576183 3042.403792 10844.085166 10354.594882 12873.436757 7510.591054 14812.757727 -200.360120 15172.867194 16307.898921 18729.127721 14607.234892 7776.693148 14272.472632 12368.698796 5213.025969 15794.544807 8649.899278 12669.315088 16324.280810 13949.579303 12447.261408 889.107083 5817.301610 15159.269343 10799.437177 8605.430325 10025.933152 3518.251441 8657.841388 14872.794523 3678.753479 3621.171336 4732.836783 -219.054619 8536.929888 15532.036976 15348.185597 16320.010218 12795.326847 14636.009342 12263.436445 14314.507788 10526.211243 13346.321620 8818.132781 9666.954282 10306.970180 13804.180550 7558.144368 9006.579731 13258.757573 7502.128596 7903.067104 10645.724111 10241.403794 6812.323371 11025.450622 8144.646062 9355.159026 8342.178240 3973.545996 3913.246253 7469.599232 16088.239445 14811.082299 13087.712487 14015.267648 12809.654970 13813.232564 8092.695271 5709.739220 4163.681816 10672.652749 11435.479942 12793.698778 13972.309310 13701.628525 14781.766767 12739.133666 8921.069171 11311.011965 9524.421645 7956.584057 3644.031805 9586.843254 9466.256123 9633.973994 6575.298248 8428.786890 2217.527442 760.168546 16510.692574 16607.548531 15948.625342 14182.993059 12429.603028 11943.302968 12087.334344 14551.788555 10694.016136 12936.567784 6654.656661 15389.793194 3182.285857 11793.072460 11354.916615 10153.004608 9089.412966 10159.681540 4210.831893 4376.704204 8373.384366 4769.938878 5620.303307 5935.854880 8328.355338 1784.736272 1750.152537 1902.759854 16749.820741 16899.889822 17105.520872 15610.265436 17044.227199 16792.734707 12419.190549 14485.946233 11263.986632 6241.521467 9293.134225 17654.252542 11672.187550 12002.704142 6940.714007 3933.683028 7717.447985 6861.384632 10110.986205 333.201531 13200.438124 7251.880508 2109.953464 4256.574075 3595.093880 -1314.075478 5703.761055 2083.858427 17044.516327 16500.887468 16616.391634 14602.367138 17760.518183 13983.956788 13380.621052 11657.078154 6363.170876 10164.811692 6283.275759 6262.663642 4744.690704 3187.369299 2256.360085 6688.867873 5137.106819 6490.456712 -1033.908100 4178.844999 6259.171652 11592.344951 5071.025835 3127.121951 9339.972616 2976.445193 3808.951046 1039.490080 17355.424683 17052.251999 16257.212397 15719.056200 13889.968949 13407.611996 12479.759283 12034.062959 8453.879415 12094.544227 3726.845477 10641.224339 2182.858233 4573.951706 11360.938635 5274.388614 3597.257365 6144.454418 8173.723503 4321.533485 4614.240866 3134.096989 3369.380839 4378.511592 9021.170455 3200.959918 1304.646880 968.301483 17381.017510 16247.950897 14459.603228 16050.150386 12011.654293 14842.380960 13463.692344 9216.034804 3434.355319 5245.703167 2712.741888 8942.000026 11138.591094 8125.899006 5244.890071 14101.315471 9195.048531 9156.147109 809.193359 3354.405751 1595.795956 1600.332799 7916.773902 11351.466227 4242.792645 5501.045772 3568.177827 2663.811207 17389.497417 16432.299090 14749.213175 11993.856539 13081.454581 9947.989048 9987.740590 9326.479419 10777.156596 6103.203057 5905.356659 2020.678759 6809.267856 2786.525223 2133.240911 6729.002972 4232.547944 1286.477145 5701.951842 3198.091526 5580.026857 3099.774430 8046.609193 6934.853248 5758.332529 10786.653669 3588.617552 5813.379791 17447.912035 16778.208513 15431.664445 13613.092179 12484.138365 5207.369883 14632.654437 13946.643579 6897.006933 9585.421212 11394.701286 948.207667 5294.528202 2046.226914 2674.747765 1540.615188 3287.445979 1231.788937 9495.682484 6230.784686 8198.213365 1580.715638 11623.729178 3083.915295 5980.988228 10373.527522 2533.279165 3007.828825 17524.354838 16523.084495 15931.484041 13304.160244 14113.645414 14490.236106 10595.085628 10887.980181 3686.962676 7644.792792 9187.229567 5673.524457 2926.474132 1458.540937 1934.993215 2985.648384 4231.594421 2388.412852 1536.134298 2176.397530 1240.614165 1824.526907 1892.951300 1866.457735 2153.071191 2762.961271 2061.158233 2877.357122 17542.583852 17507.780956 17518.455153 16804.891866 14613.375423 14578.535613 11000.441329 6468.459120 5316.076030 5693.859734 5022.888800 2896.240382 4509.161692 17389.159548 18193.102263 19264.051397 14733.776556 14888.789716 10170.326826 13163.110449 8564.341235 10037.920357 9516.910226 1485.340999 2289.561576 1289.904406 17188.932851 17040.993472 16901.939401 12851.147126 13624.940507 10108.299727 8366.356580 7518.725489 3470.159766 3514.685535 1316.163661 1640.333782 1797.987187 17236.367223 16679.366412 15717.887925 11573.124925 13380.602560 7620.062133 8436.473297 8239.497616 4916.645291 3401.294922 7686.871752 9293.297862 1874.734886 17406.578772 17240.948635 15469.876574 15310.152887 5315.689578 5397.163617 4273.365053 13438.035660 7436.711335 6213.317976 1717.954930 733.546592 3654.042970 17500.856935 17189.210109 15436.564172 14353.074533 9155.914510 9944.009199 11550.674147 6274.784969 5549.296480 1511.957708 5188.647083 2014.524506 1508.164260 17544.664514 16959.198542 15521.462335 14981.523722 13125.990503 13277.979871 13037.875898 5963.116798 3916.260774 9844.793224 6460.278045 4986.997921 5434.833858 17648.691455 17448.963419 16488.401406 15937.746131 15096.956725 12176.722285 12331.490834 1425.705482 8632.435744 3061.035816 2716.429463 2232.457559 1369.782085 17674.739097 17558.807288 17695.336754 14777.559533 16377.534015 12270.040302 10250.912103 5202.903400 11604.374569 2414.265159 6626.391342 2283.640795 1872.225688 17578.184168 17207.376806 16794.707245 13166.021503 16108.444192 10362.980517 6565.863330 10698.855661 8174.105810 4511.124863 7985.211856 4818.215396 2689.858451 17434.449934 17699.941340 18059.810510 14260.891678 14692.498347 11442.250906 13930.824721 6257.604882 4109.282395 3125.138562 6909.019684 5808.230240 1442.030741 17196.311627 16951.831702 17026.265095 13028.472949 10503.793172 12802.798415 9169.737246 10758.846330 7449.724349 8379.348999 2194.575934 5119.983038 2024.285797 17145.789392 16417.876240 16692.128981 16855.294938 14479.608209 14411.995103 10762.082026 10228.659026 10651.073884 4197.164559 10534.257236 4451.459342 1854.726916 17252.786093 16047.468882 14909.301929 18508.080982 9805.414223 6290.947473 7959.503521 3097.618526 6454.344955 14691.559599 5627.845580 2072.335944 2981.232501 17247.465922 16318.753021 15056.621125 11643.626380 17797.879762 15828.399842 5320.959867 13491.572200 4964.830188 3976.418677 2985.464424 6916.205759 1120.833586 17133.239735 15898.693777 13890.884865 11124.261750 12275.683211 15751.245051 13028.149869 9973.812847 6745.584174 3481.532149 2974.567477 7959.317554 2366.343075 17255.211099 16324.378237 14950.588755 9906.256169 7675.300764 7721.845500 2877.421431 11282.963541 4531.559225 9366.658587 4427.311195 2243.179297 2650.432557 17316.193886 16631.770763 14843.260697 15347.991665 14996.186071 13569.032201 5969.883521 14924.272548 6622.961676 4972.455828 6450.493951 3408.728253 3226.312588 17283.571507 17012.284884 16681.078872 13874.068060 10155.397526 13234.724517 12467.291200 8052.684279 5329.345772 4180.259648 5449.317283 7972.094219 12425.356794 17437.643292 16859.454723 15623.533624 14175.261432 15289.802923 9121.538639 1817.486286 9143.485868 4218.305971 13948.882822 5551.105156 3097.301768 1041.099863 17835.341750 17876.923678 15667.908641 17015.262606 13876.989569 9319.309368 7374.792079 6323.795729 16164.015544 7387.423251 3947.923487 1484.231993 -224.488050 17973.626994 18010.621137 16057.715215 16655.659947 13034.876026 14801.884199 11762.330464 10231.758007 8312.579792 6934.168442 4954.793086 5978.327612 5322.081936 17895.146326 17365.938117 16067.627132 15688.935650 14468.359783 12613.272624 13713.613660 12696.468701 6599.934854 11758.476557 799.157926 1269.963880 1503.572829 17949.974605 17141.641771 15702.691329 15068.254916 16638.572338 12048.900557 12232.031009 16095.310658 13907.105665 12675.790899 7134.463945 835.926014 4556.710727 18007.131857 17549.297598 16040.350300 14572.802530 14460.477034 14417.276972 15407.222836 12608.527352 11170.208137 3637.212266 2433.737239 4673.594137 2614.321955 17865.808504 17581.925289 16658.320083 16750.162545 16868.023798 11190.410020 16284.674071 8524.312284 11177.489629 1270.611820 4205.576811 6278.358726 9586.135546 17761.972031 17141.829301 16140.916062 14234.174406 13434.991345 14393.109242 10395.028444 8529.462112 7474.281267 3778.104571 7254.098951 910.380883 8335.761418 17832.793581 18225.326767 18471.379876 11181.320273 13091.425831 13074.764706 10562.844489 9921.673913 7909.615664 6059.827486 6075.023818 8617.512973 1521.286594 17703.716786 18603.007303 17628.802828 12050.807663 14361.258559 14666.374872 9347.008885 15408.846073 9127.239928 4792.685765 5473.119382 5796.530659 2900.345896 17685.000341 17034.314529 14891.680872 17232.428987 16925.117661 14057.034621 12528.905122 16819.582108 12419.421181 7943.039005 5569.980633 4484.549535 2289.180806 18100.477442 16585.230857 14948.439519 16901.987167 14154.829614 14698.816302 15459.500540 8584.989463 6515.723816 8211.385833 2212.006316 5550.248141 6269.897937 18344.908264 18149.464407 18026.926151 17289.686085 15835.568620 14813.488757 12166.899010 9924.275314 4108.362852 10978.005483 2146.560087 6149.712095 1024.258149 18227.916572 17499.174696 17442.437064 13822.243968 16777.433177 12748.397175 5033.549029 3282.726485 8837.317486 6061.785365 12885.961303 6235.611346 4645.377464 18232.631907 17407.027280 16691.417159 17855.350943 17819.371550 13125.873164 17072.258010 13248.665308 13213.621109 10956.956688 7908.550108 2901.609474 1981.159431 18351.057811 18173.965281 17092.258829 15618.718770 16025.211632 13746.578907 8698.541890 11540.976127 5361.848219 5075.952980 5635.784128 5435.815106 5126.680753 18486.560607 18705.613089 17812.852071 15695.190068 14532.472118 16133.930515 17084.744167 10058.133784 8767.699138 10890.509301 10655.275502 5216.807583 864.865984 18490.043112 19098.088435 18535.060286 16023.248976 19082.221701 14999.962536 17149.817473 4957.249446 6937.432636 13183.287383 4216.601560 3442.324725 3718.644764 18380.141491 18519.701329 18289.750211 16961.425350 16936.765216 12054.050253 12080.683437 4888.531243 6805.970701 13660.447433 6245.457317 7462.895787 6211.483329 18436.310609 18438.808022 18616.874492 18609.455740 17826.411935 16564.118877 15012.190175 14278.055053 17429.369995 8483.713477 5359.985915 6141.900085 4007.344048 18550.697571 17481.201962 16503.630733 20562.955931 18065.731247 18489.912554 14485.161780 16487.033973 8791.604288 11077.328764 9832.517985 10191.598543 4610.074738 18787.624580 17462.582985 16244.443818 16574.171328 14632.542846 16368.741520 16679.933163 14151.503890 10643.092205 14170.794038 10468.018203 6618.398405 -114.812799 19017.820536 17921.763312 16140.221699 19116.922599 18616.101042 18107.028283 17257.188164 13388.636286 15705.799965 8060.472787 9975.459423 5299.531268 4080.708322 19070.306862 19065.583002 19479.167791 18558.338297 18797.470652 18752.656195 17164.808888 16861.370266 14894.235711 12429.941915 10770.867307 14634.934200 8279.055434 18914.116686 19901.728704 20528.113046 17589.051830 16913.132968 10238.374104 16776.903267 13994.142790 10882.539125 9226.726925 9279.882484 3688.323195 7556.850986 19055.688524 20555.736506 20199.956386 19839.612975 21113.940930 16209.886362 13040.967466 19461.974595 13573.636176 2309.290114 7753.250880 16122.556650 885.659827 19374.232587 19389.337115 17446.189546 17591.782025 18230.368465 17371.447972 14085.528733 12289.002336 6175.013527 15475.284834 13264.398481 2992.221964 8907.246506 19698.071570 19315.193094 17436.361756 19342.419116 17170.878589 16188.192351 15969.529096 11123.434780 7216.756153 6951.058354 9058.782856 8247.355828 6119.334366 20049.939376 19848.920929 19007.442090 16424.549814 19011.180104 16811.698813 13653.187996 12573.786300 5099.730006 14643.769135 10837.096559 16825.948701 5311.020905 20244.578869 20008.327095 19889.711689 20068.902704 16624.269094 18392.864096 9540.432643 11844.591902 5100.553277 15819.010442 4447.199494 10766.310500 2615.991836 20431.982823 20542.939276 21994.703807 21412.803953 18117.159965 16869.458698 12084.563902 17296.402408 14861.786503 13073.308342 15101.653441 6769.887508 2962.672070 20888.745118 21006.854357 21280.887957 22170.423921 15943.978676 21116.303213 9640.277986 17914.793270 12227.683983 4282.097365 11885.692143 10297.886692 1969.776728 21433.231365 20770.744932 18794.534022 20797.438556 19648.751771 13845.222038 16009.938487 13877.931868 14456.631558 8872.400227 10999.561601 6298.896435 5032.444674 21875.508424 21688.157147 20446.149434 19017.924211 20194.241250 7447.912563 16510.005957 14432.449208 9915.453033 10220.535316 14146.995716 9997.786950 6274.222356 22321.228324 22672.569842 21478.351430 22408.398987 20836.539959 19091.871946 9242.115680 18721.534853 17167.401481 13197.359645 15918.599469 12360.351015 -12204.041408 22523.854480 21311.959281 19560.890809 19985.008510 22937.884272 15404.780234 11108.658942 10175.349770 12220.460228 17206.456846 5505.129117 11002.456644 -801.179099 22581.373203 21727.414759 20390.678053 21981.657000 21666.194047 21057.400995 17016.380606 18061.016729 9266.589341 6508.448395 7767.759115 4325.130062 1746.066606 22726.780952 21132.889431 19499.670543 21510.384381 20006.139707 22421.764465 10292.505234 19160.120553 11493.809079 10581.694960 12839.651186 9682.584260 8653.689195 22895.184118 20834.151661 19741.105276 21076.296541 17791.747827 24519.986248 20002.573215 21054.335847 19049.465056 19397.030050 9611.085983 7455.837779 7508.524692 23058.637966 22142.650060 20996.230670 21598.729113 22358.634085 18194.931866 21884.297542 21721.157892 19560.308683 10217.108306 6748.236902 2487.750888 1368.317747 23250.003269 23027.786426 22164.845792 25429.856036 22850.235616 19426.562734 20186.910046 18656.576812 13451.937692 11750.998190 11954.495560 11877.158249 6502.399506 23689.143610 23808.249120 23905.038184 22142.218490 18898.900184 25286.596976 18764.247015 6758.636413 12863.591855 12699.862018 9719.548488 14907.705596 5037.881711 23959.503571 23424.894717 22601.612408 18103.470636 22267.157623 21876.590415 18125.325606 7631.825321 15137.166393 13372.151474 15663.185571 6297.291662 -712.673756 23669.523285 22358.413537 20064.627068 24277.889119 21945.549256 18597.431920 22200.953507 16125.510729 21660.907606 24256.105648 8265.311749 12070.695999 16789.171727 23480.191105 23811.975660 24402.445920 20107.633668 16701.531265 19210.561883 23230.395456 17819.888124 11743.367983 1986.277581 18038.371088 8305.838159 962.254838 23789.845185 24571.554919 26069.898585 25647.055529 15707.383194 15210.608924 11546.525934 12563.657985 16636.752006 17111.789746 9466.059914 5484.721258 7174.765629 24276.413593 24577.807108 26921.645113 26351.552062 16195.000598 19277.534014 14378.614598 7927.808501 21645.116549 7729.642255 7878.354013 301.255304 -3837.559709 24270.566935 22430.062756 20766.074109 22032.848336 22317.571981 20804.263463 22453.292328 13060.301800 11007.505863 18322.997150 19930.713179 1324.604895 -1973.241320 24277.621934 24322.093539 24625.068106 22120.719794 20845.189390 23801.536197 17612.101606 16138.826419 9071.198902 14425.969603 8819.352859 5974.522900 -2210.615754 24746.394882 26247.406395 25160.603413 19388.797489 19414.793915 20269.123705 20117.225997 10869.574060 18422.578692 8375.604258 13220.363296 7643.365116 14998.260762 24984.770447 24566.320159 21074.913020 21027.348115 20328.221494 21110.764045 19917.589117 20523.648434 16315.183662 10582.593004 12694.101873 7113.041317 360.069177 24696.208954 21697.713691 17302.255881 15611.429917 23926.638011 20329.347409 21328.347819 18259.737117 19079.668455 20152.866077 5184.559604 21675.728960 3433.725379 24372.851147 23628.745300 22631.646140 26497.120016 21466.006878 17585.006619 20484.454733 17256.590597 19648.109709 17808.325165 6753.542555 4087.967604 10220.198556 24022.190504 23773.769257 20333.745985 22135.453765 17837.326571 19733.769606 16372.358982 14290.818740 15834.715373 17844.140484 21262.960841 17137.736921 6626.307112 23202.567886 21286.106241 21659.733872 21704.595362 20111.809631 22382.310369 18893.349799 16128.569070 17923.584159 15803.371848 8831.216026 12908.714762 351.780176 22378.940188 21219.075667 22954.512000 18304.806926 22488.569982 18248.752369 20893.840421 17782.059310 19052.593485 8922.927703 5876.741633 11276.769040 3287.643409 22303.803035 24420.622604 28814.750726 19767.908880 18042.781261 22149.354734 21930.086900 24521.405361 8204.704136 18413.088759 23542.244388 9894.953612 3535.877386 22239.962118 27944.529777 32754.807036 20546.183308 21007.716810 23644.893966 19527.900404 18782.659966 19270.511388 23201.692745 9915.771729 13110.175431 9611.853918 21690.744169 26171.139737 31206.436246 20585.978117 21597.978596 10903.258597 15060.966030 16374.743972 7568.292775 9640.864755 7719.355402 10194.372593 4623.919952 21051.563995 19121.521723 17043.944112 20242.366485 20538.982672 14302.524257 17497.044204 20027.098058 21274.618859 8675.494704 9623.175069 7332.187730 2945.605428 20303.950518 19195.327687 19867.678943 18097.596118 17839.835340 19500.997739 20573.966629 20714.804661 23188.575483 19856.213358 24815.869473 6428.656377 3313.938131 19700.884890 19656.199607 19615.302821 21287.913973 16246.599501 23287.699665 8250.148217 16958.778286 12542.858613 26001.722811 11041.784129 7225.994387 5695.272054 19223.406159 14617.220446 7760.080982 17086.491341 10126.430953 21302.166013 15073.403007 25585.948756 13659.731566 5991.587711 19103.576848 15213.822394 13661.509793 18642.672779 15503.650430 10960.583695 16473.179770 17849.332101 18847.709884 17681.577291 22611.029524 15045.625507 11713.126051 20047.989346 19447.752726 9590.036678 17970.002838 15628.304509 13424.468623 18338.383699 16908.437711 21426.714593 25264.380586 14093.840900 13209.371346 22967.606418 16181.694733 13832.137042 24518.214105 16905.156545 14625.659949 11890.397547 24962.889619 18383.797223 17540.010612 23461.808270 23586.296103 22577.620010 19267.363307 13750.604456 17236.478846 12377.194741 16330.183034 15788.396168 15397.200165 21597.320990 20732.761390 13835.695122 22480.369602 15326.290122 17371.861227 21198.370725 13111.615925 21420.227347 17804.828665
</DataArray>
<DataArray type="Float64" Name="Velocity" NumberOfComponents="3" format="ascii">