<VTKFile type="PolyData">
<PolyData>
<Piece NumberOfPoints="2177" NumberOfVerts="2177" NumberOfLines="0" NumberOfStrips="0" NumberOfPolys="0">
<PointData>
<DataArray type="Float64" Name="Pressure" format="ascii">
 17696.745372 17898.511506 18142.510993 18199.248995 17954.190101 17454.246003 16768.701761 15883.961270 14887.447975 13848.411611 12666.943273 11161.294376 9272.780740 7297.590891 5624.690408 4631.094962 4225.419611 3892.306130 3152.261374 2039.685130 898.524472 -89.500649 -989.518142 -1945.869603 -2882.145551 -3478.136889 -3681.187036 -3658.311347 -3536.591347 -3367.559947 -3174.155365 -2968.935562 -2759.425609 -2550.785533 -2346.810027 -2150.280605 -1963.126936 -1786.553223 -1621.165953 -1467.103972 -1324.163126 -1191.907632 -1069.762921 -957.087684 -853.225551 -757.538954 -669.429612 -588.352976 -513.841683 -445.576463 -383.609100 -328.890694 -283.893737 -251.516968 -232.156080 -223.856209 18305.634082 18724.029856 19219.261211 19027.009041 18463.106547 17999.217554 17379.481860 16448.588091 15456.768533 14316.791095 13257.530750 12321.280385 10680.381360 8769.289169 6941.922175 6105.958181 6161.196858 6208.430656 5516.275851 4082.285547 2526.364517 1233.140209 270.490483 -519.759501 -1898.079563 -3116.751832 -3605.984964 -3656.899827 -3546.804320 -3373.076748 -3176.224550 -2969.628745 -2759.697012 -2550.954995 -2346.971847 -2150.455883 -1963.314810 -1786.747438 -1621.360091 -1467.292970 -1324.343532 -1192.077431 -1069.921195 -957.234186 -853.360105 -757.660212 -669.531625 -588.414516 -513.792396 -445.194055 -382.231328 -325.205620 -276.805184 -244.111101 -226.312016 -219.298519 19234.853011 20454.288567 22968.960108 21455.491685 21040.280137 19859.030335 16858.559746 16417.522477 16657.926571 15075.461880 13359.850430 15142.768466 12565.089002 11022.211819 7534.465399 6602.470640 8757.446045 8064.266714 7012.368881 6779.778145 4305.715748 2606.249173 381.610056 757.491668 -314.228625 -2524.634283 -3489.143464 -3659.354628 -3573.252969 -3382.258802 -3178.859387 -2970.430541 -2759.895849 -2550.933209 -2346.856381 -2150.295154 -1963.131502 -1786.554655 -1621.166400 -1467.104107 -1324.163148 -1191.907571 -1069.762682 -957.086887 -853.222934 -757.530378 -669.401521 -588.260976 -513.540476 -444.589079 -380.402751 -317.827203 -260.059583 -229.759574 -216.303076 -211.696941 -226.166852 -212.271287 -206.470901 -194.751009 -189.786591 -186.919807 -164.251449 -163.057290 -161.937059 -139.652840 -139.332850 -138.940631 -118.616870 -118.550516 -118.399063 -100.455837 -100.461656 -100.389170 -84.766687 -84.791488 -84.746286 -71.250003 -71.277906 -71.243760 -59.649978 -59.676364 -59.648068 -49.737207 -49.760881 -49.736622 -41.303463 -41.324271 -41.303284 -34.159894 -34.177995 -34.159839 -28.136062 -28.151700 -28.136046 -23.079098 -23.092529 -23.079093 -18.852760 -18.864236 -18.852759 -15.336405 -15.346160 -15.336404 -12.423863 -12.432114 -12.423863 -10.022276 -10.029220 -10.022276 -8.050910 -8.056724 -8.050910 -6.439989 -6.444834 -6.439989 -5.129557 -5.133575 -5.129557 -4.068390 -4.071705 -4.068390 -3.212973 -3.215694 -3.212973 -2.526548 -2.528771 -2.526548 -1.978239 -1.980046 -1.978239 -1.542253 -1.543714 -1.542253 -1.197164 -1.198340 -1.197164 -0.925271 -0.926212 -0.925271 -0.712028 -0.712778 -0.712028 -0.545550 -0.546144 -0.545550 -0.416176 -0.416646 -0.416176 -0.316099 -0.316467 -0.316099 -0.239038 -0.239326 -0.239038 -0.179971 -0.180195 -0.179971 -0.134905 -0.135079 -0.134905 -0.100678 -0.100812 -0.100678 -0.074802 -0.074904 -0.074802 -0.055330 -0.055408 -0.055330 -0.040744 -0.040803 -0.040744 -0.029871 -0.029916 -0.029871 -0.021807 -0.021841 -0.021807 -0.015864 -0.015889 -0.015864 -0.011518 -0.011537 -0.011518 -0.008380 -0.008394 -0.008380 -0.006166 -0.006177 -0.006166 -0.004677 -0.004686 -0.004677 -0.003785 -0.003794 -0.003785 -0.003427 -0.003435 -0.003427 -0.003597 -0.003606 -0.003597 -0.004353 -0.004364 -0.004353 -0.005822 -0.005837 -0.005822 -0.008212 -0.008231 -0.008212 -0.011832 -0.011858 -0.011832 -0.017119 -0.017155 -0.017119 -0.024677 -0.024726 -0.024677 -0.035315 -0.035381 -0.035315 -0.050115 -0.050204 -0.050115 -0.070501 -0.070619 -0.070501 -0.098330 -0.098487 -0.098330 -0.136008 -0.136214 -0.136008 -0.186621 -0.186890 -0.186621 -0.254102 -0.254451 -0.254102 -0.343425 -0.343875 -0.343425 -0.460833 -0.461408 -0.460833 -0.614111 -0.614841 -0.614111 -0.812892 -0.813813 -0.812892 -1.069020 -1.070174 -1.069020 -1.396957 -1.398393 -1.396957 -1.814239 -1.816017 -1.814239 -2.341998 -2.344183 -2.341998 -3.005521 -3.008193 -3.005521 -3.834882 -3.838127 -3.834882 -4.865608 -4.869528 -4.865608 -6.139410 -6.144117 -6.139410 -7.704944 -7.710564 -7.704944 -9.618612 -9.625285 -9.618612 -11.945389 -11.953267 -11.945389 -14.759652 -14.768902 -14.759652 -18.146019 -18.156821 -18.146019 -22.200150 -22.212696 -22.200150 -27.029509 -27.044004 -27.029509 -32.754058 -32.770716 -32.754058 -39.506847 -39.525891 -39.506847 -47.434483 -47.456138 -47.434482 -56.697424 -56.721922 -56.697423 -67.470093 -67.497661 -67.470092 -79.940747 -79.971607 -79.940742 -94.311075 -94.345436 -94.311060 -110.795500 -110.833547 -110.795452 -129.620134 -129.662003 -129.619978 -151.021392 -151.067108 -151.020885 -175.244284 -175.293562 -175.242635 -202.540576 -202.592193 -202.535205 -233.167457 -233.217226 -233.149974 -267.388911 -267.423060 -267.332008 -305.486978 -305.460314 -305.301787 -347.807506 -347.569287 -347.204791 -394.917831 -393.952174 -392.957966 -448.380342 -444.656591 -441.975877 -509.878103 -495.949294 -489.653473 -543.485785 -520.582385 -510.409622 13575.040336 12943.440340 11692.089841 11700.019870 10331.136808 9067.138802 8031.459877 8343.759419 6506.613081 3686.329512 5855.303797 3573.555835 1490.768275 -141.513814 -1327.312412 -1516.333628 -1954.125839 -2373.741934 -2708.977135 -2935.486096 -3054.538786 -3084.425441 -3051.675876 -2983.088240 -2900.649163 -2819.557354 -2748.418318 -2690.495856 -2645.233555 -2609.654631 -2579.512817 -2550.187026 -2517.344220 -2477.392704 -2427.743549 -2366.901009 -2294.411795 -2210.712084 -2116.915435 -2014.582549 -1905.505845 -1791.530682 -1674.423399 -1555.786551 -1437.014837 -1319.281346 -1203.541566 -1090.538692 -980.779159 -874.387887 -770.633679 -664.207965 -571.449402 -532.123384 -515.165527 -508.824282 13419.949670 13105.338403 12111.657325 9895.578874 8774.831863 9754.480591 9035.344762 8831.055633 7896.461853 6332.240592 5858.453560 4039.706638 2185.189169 695.977573 -523.035903 -1316.345097 -1890.577038 -2352.721098 -2701.116651 -2931.921821 -3052.590747 -3083.303263 -3051.100910 -2982.896231 -2900.703839 -2819.744603 -2748.650634 -2690.712368 -2645.396452 -2609.744619 -2579.524906 -2550.126862 -2517.224745 -2477.231051 -2427.558212 -2366.709485 -2294.228874 -2210.548878 -2116.779118 -2014.476651 -1905.430922 -1791.485155 -1674.404429 -1555.790921 -1437.040099 -1319.328227 -1203.620894 -1090.693631 -981.158424 -875.498780 -774.157912 -678.235548 -596.346592 -548.895932 -525.777111 -516.949663 13244.816130 13063.389179 12615.925831 11825.915536 11299.813275 10952.944961 10056.878743 9097.684197 8052.747551 6727.061474 5423.690645 4027.953689 2493.627299 1018.225206 -232.505648 -1164.265372 -1837.183496 -2336.066745 -2697.257468 -2932.063341 -3053.629886 -3084.219449 -3051.642612 -2983.088261 -2900.652041 -2819.558826 -2748.418792 -2690.495935 -2645.233525 -2609.654590 -2579.512786 -2550.187007 -2517.344209 -2477.392698 -2427.743546 -2366.901008 -2294.411795 -2210.712084 -2116.915439 -2014.582563 -1905.505893 -1791.530838 -1674.423909 -1555.788219 -1437.020282 -1319.299126 -1203.599623 -1090.728257 -981.397885 -876.410830 -777.166925 -687.048723 -612.882165 -562.509023 -534.532702 -523.174161 19676.568469 21846.937421 25613.479468 21516.689604 23855.050164 22502.705980 15581.106903 16570.210377 17055.973224 14742.537571 13437.489443 19260.321533 13774.331704 11530.105317 6502.032328 5565.613282 9002.183199 6038.564371 4034.113734 6900.729669 3689.127576 3762.560678 -118.895789 945.112091 1359.604504 -2326.034090 -3457.892547 -3666.090825 20443.592320 21877.614352 21825.588807 21830.818801 19501.473238 20030.245713 21303.423771 24294.611336 20081.732120 20594.538192 24621.487208 19088.774099 19563.081076 24182.250942 21863.562762 23862.107025 17171.591876 27586.987073 21994.030387 20960.338728 21192.538009 23706.149025 23431.299023 24625.970343 10767.867998 19186.952080 7508.250828 3865.860266 21193.130382 19988.368551 19760.646599 16904.453028 18515.218033 19185.877200 17053.953487 20183.174734 24247.174853 22486.648620 19548.286670 20621.232574 21087.320062 20790.807108 24030.781644 24832.996874 11230.873089 18992.559905 23979.557533 19799.868549 22065.365931 21667.172199 18958.605549 14489.921018 26388.532612 13097.842259 13398.994800 23429.607474 21702.826872 20186.218542 20908.645155 18606.431909 20583.718143 17694.253687 19549.918731 17856.253622 23529.179741 15764.684502 8345.744783 10670.740451 21444.043236 14878.742402 21166.328086 20641.751866 19488.662596 15848.811711 17975.679288 16459.274442 18589.909035 16288.480330 9495.951742 13734.872894 17244.974327 14565.899525 19553.360324 9760.859523 22150.368113 22790.409228 26410.771670 24295.891922 13760.093423 20959.194363 19054.296848 5330.441135 21318.725930 8522.148903 13871.500046 24905.151315 23258.467248 23619.242635 5236.230174 10456.337289 23739.475589 15451.702764 12750.040477 19620.152573 2357.372152 15828.286976 18684.195518 11634.082484 4073.277053 6133.927771 2620.535241 9459.795132 22558.681408 22678.479378 21571.074885 20952.176749 16875.016914 20249.747437 17830.920395 18357.153521 20161.625255 15952.626659 13937.483411 17891.272257 15390.218723 9346.592946 11237.716689 24819.738622 18938.283178 10717.568776 22873.851112 14997.890351 13300.928006 17872.593669 17620.719479 19584.143328 20467.660953 6024.076174 5851.580221 3507.651283 23338.902901 24233.246217 25428.615908 24500.807522 17337.943288 14028.862148 7999.671082 10543.158885 20181.977886 17218.576092 13391.767324 16113.254520 21028.813561 21531.931174 19318.380336 11835.722123 10262.746947 14840.579359 15152.020660 15700.510583 2725.982342 18223.420807 17495.856157 18627.684672 10112.643468 9599.307467 6124.594721 238.123201 23959.766257 25078.970371 25189.530707 21904.304093 18134.621720 18268.765211 16635.298704 16882.914199 17144.189830 17767.028045 13647.363311 20953.210707 10675.687325 7954.303228 17558.501031 16864.433770 13589.265534 16471.996681 7658.266076 12698.886341 20593.760574 16387.068638 4654.994555 4900.557356 13173.998399 5299.361258 5818.771402 3416.556022 23836.799065 23802.037791 23003.576360 21234.339471 20731.604820 20519.697640 15633.937079 17272.675463 16402.667627 7058.769311 11566.054110 17525.285271 18156.402483 18640.298849 9533.731107 6622.142995 6885.306423 1575.327556 13306.560764 450.911045 8964.777516 16885.438870 4907.981789 9244.307089 6032.761389 6591.775732 10573.032312 6525.193033 23685.139861 21307.289027 19011.910051 21176.430197 20727.501517 17071.491609 18483.519644 14092.485934 7744.359283 16314.122551 5335.152701 9415.437546 2123.437017 7153.760226 5167.012647 12083.567421 8528.881528 8592.756694 17712.897152 8980.801378 15863.593532 15560.014687 13570.832219 7816.680011 19394.518378 13704.737038 1651.766466 6884.860553 23936.224538 22860.981571 21188.038638 22045.636118 19232.717698 14529.790215 16571.464964 22374.072578 15011.612609 16746.601251 13021.153629 18384.913799 8532.107964 13169.318141 17083.416676 4946.529841 3243.736411 10835.406731 12527.985345 9993.071569 13358.462311 8946.258429 6468.483719 6900.430572 12386.382628 5152.849050 5893.141740 3458.315021 24102.538044 26373.617665 28353.930295 20171.343874 17191.484284 18668.305433 19894.306951 12678.465059 9788.290349 11617.044862 7635.120246 12918.304221 13294.969307 11001.067275 9376.635146 17366.846708 15322.030286 9399.400882 3760.444436 6189.755699 4141.713713 6544.026356 14585.349062 9524.137907 8777.868263 8521.115381 4117.045795 7684.024801 23690.991589 24114.085981 24691.438156 15896.534242 16083.407528 15946.332952 19106.512281 11400.419034 15919.074113 7389.932519 14787.306502 7403.772382 11627.270686 3103.187823 11632.382970 8804.166622 4893.179935 2955.790355 8496.315362 15185.657043 12589.765961 13093.259241 7877.592128 10477.694632 14599.639724 15247.006897 3175.474438 9149.155351 23001.698608 22682.321948 22293.085811 17144.475492 17392.578958 8297.535810 21782.507662 18131.830074 4445.394410 18457.155389 13973.520076 3516.632892 8131.857000 4731.993948 4092.967063 3304.938117 6244.389641 3145.173432 13598.226904 7700.640713 13325.494354 5307.449312 18086.742360 6584.530300 8955.772755 15859.390178 1365.994673 664.379471 22476.242010 22679.197131 21120.215142 15728.627775 13282.626504 20758.127322 15130.064181 18446.374917 5078.533951 14874.962215 14637.728522 6288.248569 10504.970721 2216.506882 3403.131362 2662.002165 3371.970279 3678.060032 3044.538631 5375.573786 5376.481354 5643.004178 5184.373672 3233.255151 2767.601595 4118.582435 1705.917017 2746.192355 21995.571121 22498.363025 22505.208357 17757.378626 16665.483456 9750.308436 11405.237531 13681.064142 8819.014551 8494.659786 11098.859873 7789.119108 2710.408821 22023.365204 23503.895573 24059.896509 12914.045283 23152.352237 14307.062403 20186.624462 13403.128066 13873.196770 10675.511692 4618.838939 8503.114833 2285.766296 22418.825803 22726.646211 20732.159968 12394.235877 17841.166018 14804.680942 15804.941375 11274.256180 4324.909179 10244.237036 6901.460173 7585.985615 3097.584556 22755.299259 22339.991240 20798.550484 14903.612444 17673.853749 9183.050282 11768.884563 14067.380281 3872.855501 6884.840174 7329.977223 9607.911882 1099.583399 22940.127178 23136.762625 22902.305823 15757.871696 9163.846899 10837.414194 6085.866888 17366.527520 9283.220013 10452.092787 3592.748911 833.613391 2362.998133 22789.542610 22253.177796 21433.654034 18101.213321 17255.945091 13932.706299 13789.009501 11487.911148 11682.019855 2501.380867 7525.972317 5615.076916 1306.534491 22483.612599 21084.012786 20010.310168 17754.451137 21628.729083 14891.137650 14934.757792 9889.705856 2342.748327 15104.623495 6818.142552 9321.344561 3902.884981 22339.666010 22634.663696 24114.923807 18212.323339 18150.956520 15758.346126 14336.525975 3893.989865 8484.025012 1810.808777 5612.745149 3714.112856 4574.432124 22192.080540 21790.575359 23069.053151 18156.460750 18228.011313 15974.859450 12207.324733 12610.636562 13753.497773 10582.077975 6798.700497 3268.036615 6349.826295 21875.708111 19834.074332 15807.524713 12154.869873 15021.336069 13350.760469 13659.635791 14181.304883 11104.242055 7048.770236 11201.032976 6085.682746 2372.171282 21601.143656 20343.128934 16413.199356 17417.738819 16438.133945 15745.094823 16734.683472 7791.927947 4324.080791 7236.094373 13681.007051 9759.434387 7003.585191 21090.872473 21958.882147 20930.554833 16504.050232 13123.164837 12168.404083 10563.476404 12291.427556 11911.408734 15265.180254 2703.085707 5618.074906 4051.522809 20452.418053 21642.325170 22501.694214 16491.290383 18068.839137 14059.990244 12346.517863 12505.898184 10225.913608 9292.190558 15768.924661 4398.898453 2628.404276 20189.380798 20604.030831 20973.041731 18323.004389 12708.296740 14269.172605 9162.192972 8097.276502 9956.440689 14724.739374 8405.307934 4769.291236 4978.542624 20255.451923 20371.778566 22082.441422 14590.092416 16799.254138 19178.643734 8642.028103 16864.632407 7352.517350 8598.210565 6980.692149 5728.639522 5243.666446 20300.739309 20736.874540 23612.960898 19323.024870 13331.537769 16485.154747 14762.597811 10815.553801 13608.166380 6676.995008 6963.288926 9155.954482 3291.914530 20205.635577 20141.569896 21680.216209 14390.729768 8670.598887 7236.034724 5635.363613 11802.800322 8625.047690 12860.060983 7749.892117 6658.275540 4370.626440 20072.607267 19530.474304 19278.680914 21133.413115 17420.489875 13563.664509 6563.450045 13903.364344 13189.908792 11292.468206 9370.024396 5175.572210 1645.219828 19963.220709 18619.983811 16029.329177 16901.102392 10009.999720 18063.561071 14843.578189 10155.752079 10482.548113 8937.263336 8294.159531 10523.719632 1787.159634 19847.469221 18912.896224 16208.598272 20479.448955 19649.962068 13052.026571 12031.279392 13208.377495 6604.498659 12963.489947 6634.202128 1199.437556 2051.288628 19773.502048 19436.024251 16700.464087 14940.268359 15047.149942 8481.067937 10557.953704 10790.935816 9230.028162 6208.739528 6553.961332 8317.373894 4729.955018 19655.791585 17877.732645 15714.605730 15443.562826 20382.937780 19766.889754 10167.865717 13145.589677 8728.785601 8324.043800 7115.873355 4748.232244 4859.561929 19347.811599 18636.968762 18566.702528 17392.431261 21065.129152 12881.944288 14166.884933 9622.364731 8482.555672 9139.358881 7023.475007 4705.994723 4678.861812 19076.416997 19135.021942 17667.108230 12581.924482 14907.908794 15545.416047 13345.066212 14397.361930 13284.032391 11369.636142 8928.516949 3891.093998 5036.232767 18915.241674 18099.423798 15447.758868 13048.623515 15702.354856 20177.393074 10233.152867 11872.533536 12889.086181 6823.937403 2477.723556 7802.014138 5101.742015 18731.635202 17847.509336 14682.490332 15370.341732 15155.966339 7141.540264 14168.171069 10918.284500 11006.207950 2098.086934 8447.000665 6091.130002 9633.975767 18591.421199 18734.624058 18305.640195 11439.096846 15630.704017 13788.456593 7027.278822 8487.396406 9112.617283 1607.554863 2556.555479 5662.035692 5803.985862 18535.376689 18740.672170 19080.408661 12743.828190 8975.369846 7771.373716 6622.519365 8559.986073 8559.936051 4014.572091 3647.275457 8494.968371 3112.987667 18689.048352 19087.584268 19562.662120 14307.589067 13528.240450 13893.905252 7383.001489 12177.409916 9510.571552 7856.693059 6608.896011 2354.851780 4222.373523 18893.849182 18594.545430 16269.999749 14064.000757 15203.852669 15848.947614 11284.028728 13901.715615 10152.109768 11674.787347 6086.348011 4258.149402 3114.967440 19009.982651 18796.657932 17035.226440 14694.899946 12275.638194 12781.204600 10063.743141 6985.612041 9145.064754 3790.146989 6354.797941 782.545420 3115.444177 18891.552801 18811.920562 16904.852762 16954.200403 13838.575507 9757.540929 11586.614728 6862.594472 5908.467281 7236.508143 2551.923520 7922.995353 5097.775953 18540.239314 18445.535900 17077.431607 13721.994025 13483.997101 10614.717216 7254.224984 1745.247248 3774.540534 4082.458011 5930.019071 6199.122069 4519.473402 18280.347820 17600.202550 16240.964138 15681.533066 14738.663472 13782.209867 10283.969944 11497.429721 9563.917328 10538.895763 4203.297916 5980.916173 3127.591651 18077.640336 17117.795266 14536.467704 15080.504327 15175.450975 14015.239899 9333.654515 9302.572861 4574.065132 2692.337601 5441.089947 4636.955341 4915.549169 17850.875352 16565.854018 13860.227142 12655.831160 8987.455840 13920.399890 15349.275419 10297.735807 7999.934429 5247.625038 8116.331890 5543.498843 2856.874048 17639.263530 17603.390596 17535.427161 16259.760438 14201.080274 16570.303788 9665.839321 5381.561998 5287.201887 7654.564488 5018.712931 1465.366431 3773.166281 17419.168308 17992.389637 17894.293534 16074.053460 13612.214974 8283.337459 11036.709371 5887.972739 7176.624679 8313.860506 6114.896467 5225.907674 4159.017293 17406.390200 17207.449063 17295.909709 15850.178053 11762.261380 15298.910117 9506.213499 13580.685807 12569.145416 5268.133728 7629.059473 7791.560923 1891.536797 17598.065396 16628.210869 15447.038096 16157.700450 13435.675386 13860.763618 11630.083504 8632.717318 5155.622410 8757.846256 4007.921554 8721.300227 3649.371329 17743.240062 17618.818768 16690.073029 11988.244744 12226.008498 11186.050835 11878.209770 9358.900306 7457.231264 11258.834494 7747.659122 9223.029209 3472.150991 17734.941114 18119.714402 17568.129290 13852.349273 11577.251644 10362.599691 9197.749021 7649.291930 13758.577251 6591.907515 7634.518659 3609.308897 3242.475728 17522.393220 17851.070018 17369.226606 12979.451402 14796.391865 13326.996800 9357.944408 10554.059668 7730.937622 6751.823417 7032.198202 11306.415215 2398.585300 17184.994558 16905.439505 16972.908336 15392.853385 9099.267948 8088.462212 12209.068245 12612.055702 8399.703171 5522.766062 6772.183493 3694.940946 3029.549535 16879.867763 17665.819691 19304.247021 15956.026002 15440.444224 14456.088806 7229.393071 13699.646046 10545.715055 5494.037562 5574.156062 8694.595908 4429.521143 16703.765156 17137.740736 17489.303524 8753.086138 11301.414479 9517.785915 7346.141926 5602.217661 6320.960446 10148.140118 9224.645431 4091.506024 4511.797858 16573.949475 13969.178529 9454.065938 12259.139716 13679.687745 13217.935196 12485.913675 7982.896117 5122.105416 2647.418421 5284.644283 3425.557165 5627.784897 16599.701159 15379.301747 12254.182921 14589.488997 10802.840004 13623.228822 7424.730653 5860.137324 6558.653764 8287.574232 5845.069414 9333.450170 3304.700465 16800.796674 17359.221717 16764.307040 15872.359121 14345.687830 14380.343410 9303.578831 9052.561794 3791.653108 7934.277475 2589.567636 4004.469973 3206.966775 16977.226600 18039.010128 18612.629080 12492.640684 12957.035709 11112.221100 7050.873844 8870.071431 9754.456707 9806.855083 11103.479419 4425.369315 2895.512095 16923.758543 17200.538732 16730.683857 15557.163731 11215.715927 13559.451858 6757.656698 8764.102377 7877.065663 2897.898528 12427.540666 8428.949021 2418.024080 16875.666511 17758.273276 19237.591986 15605.242221 16338.626413 9309.050021 9979.119339 7236.568066 13723.211422 7234.852467 4939.899937 6198.416415 2462.001238 16868.935106 16824.799855 16903.429994 12708.027084 11678.375540 3533.104345 9512.813667 7304.908456 13765.196006 3978.466248 9506.491598 4867.949159 4206.085088 17027.698712 16683.410098 16535.684227 16474.657488 8807.635039 11714.939645 7037.803402 11864.295024 13732.524866 7237.731618 9414.689642 11266.818327 2347.788928 17062.933078 16612.715120 15562.893619 10790.321364 11003.095518 5955.111766 10856.016840 9741.467611 10111.802146 7601.829728 1755.413254 8768.445798 1334.078637 16716.292271 16428.052319 16382.005582 13899.546611 10042.086502 13049.396419 13209.318784 13768.567742 14668.368207 8646.747642 6673.692430 1779.839638 2904.003605 16504.023173 16868.326966 16838.360185 12995.711297 10937.949043 9095.489177 7064.777695 11307.687288 9543.052969 7296.043861 5474.410317 4874.986528 6515.653764 16422.329433 17170.345807 16930.103128 15831.889304 10693.353007 15327.413097 14245.204475 16171.656428 11228.996497 14169.948220 13072.193814 4389.345343 1058.241003 16258.025320 16601.446746 16424.227854 11974.599173 10786.785638 7323.098274 9634.728418 13618.376766 9539.122321 4994.447435 2275.750516 1910.031710 2656.076972 16204.175502 15473.718785 13374.653301 15756.091587 12519.538629 13382.511861 13804.849404 9517.094507 11431.135618 10215.889894 8137.174606 9067.393166 1746.457025 16200.481683 14511.760973 11552.618774 14581.511434 9930.059212 10194.629443 10742.197016 5947.855583 12069.610084 4194.265403 2769.201898 5804.789029 1437.750257 16143.926953 16142.207608 15849.148180 9082.127088 15856.601316 11929.375481 11581.566375 5221.238965 11727.191720 9482.515764 7174.668931 2688.196895 3482.211800 16135.833072 15876.163104 16289.570086 12222.334679 8268.900497 11782.317164 12684.665134 12629.095035 16515.740972 13634.656414 4788.001476 5524.174895 6614.476351 16259.464056 16490.465550 17699.718276 12896.166542 8252.835695 11257.413215 12842.452943 12080.928592 4810.741746 4889.947310 14126.382678 2609.066542 3573.118849 16273.255785 16359.494238 16748.185800 15937.169278 13236.412320 11654.898208 6978.170047 11701.987869 4668.261654 10307.377340 6792.545687 3917.777586 6250.664863 16115.691357 15414.500747 13683.723879 15373.989287 12983.512079 12338.280418 13321.504441 3356.898740 9335.182441 6193.095203 6220.312293 4309.619555 4161.129729 15900.448198 14816.070609 12564.384439 14012.625326 10944.704958 9065.049906 12328.485659 12604.395691 6091.033855 14208.784752 13642.590096 2695.795994 2643.218796 15713.094195 15290.067533 14856.846847 10999.419910 14938.013011 9511.861601 10432.267653 12665.748563 5961.770068 9367.240697 5477.372460 9005.097737 3135.148897 15651.268808 16299.345530 16723.880872 12688.814648 9629.503018 11866.675037 12548.457813 4155.386053 13740.002321 8206.282918 7629.928754 6973.817433 3368.335488 15607.440097 15144.832533 13989.402093 14540.795884 10286.796307 12596.338700 11314.668549 12815.520334 15025.687848 7886.959263 4414.783094 7241.737727 5025.481435 15465.409057 14501.973904 11544.453401 16274.060121 11704.387732 12822.203959 13944.322941 10666.139380 10436.859905 12024.328979 1783.182992 12991.992179 3423.977415 15122.086888 13690.356133 10135.037285 15162.013767 13404.547608 7814.053348 8590.187809 8617.808906 8278.352710 8886.255190 2035.974411 2719.901716 7258.154190 14372.405952 13501.685641 13638.629484 11993.935324 11906.316845 13716.496964 13570.200289 13492.009211 12844.180256 6836.463444 13099.172435 9272.542268 3001.234124 13832.429880 15708.639199 20580.222219 16074.069099 13376.252871 11970.022575 8840.533681 11167.240984 11138.573006 9883.789108 8626.626499 4677.215385 3445.282752 14075.044668 13943.492692 13843.833891 12943.301173 8951.254371 6750.856057 13775.149305 11706.770248 11622.126863 7559.332348 2035.184564 6455.400204 3291.204153 14334.949022 12441.601402 10356.843820 15133.640617 13710.245868 11047.544819 17001.909209 10207.530005 6592.960593 9977.679344 14651.551036 5241.497879 3861.132502 13875.174959 10664.664113 10768.071259 15357.933202 14334.270146 9629.518162 17180.548835 11050.790991 9346.176859 16805.670870 7470.685644 4991.575342 -84.256711 13297.371794 10594.987344 13496.875190 16513.649870 9704.608238 5856.071303 12564.787476 8486.443224 4893.541082 9388.659251 10562.256463 9583.509266 4933.319919 13473.395991 16519.716069 25536.980453 14943.515304 11117.967926 11488.237150 11414.120153 9615.647035 11607.755127 6310.269692 3235.370827 2765.549779 1802.060438 14183.812308 16357.367166 17212.184518 8045.733452 5222.762672 12087.866992 13894.635418 6090.694990 10844.790615 12360.156313 12005.810246 3090.076034 3242.784971 14890.231878 14686.792171 10905.498655 13115.650933 9722.720187 10128.353892 11707.962100 12408.418410 5979.508656 10963.159268 1475.256924 4038.847469 2752.782074 14945.223188 14013.011740 11253.978019 7536.561325 11120.268588 13722.841217 18287.026448 13330.248908 12273.404940 4111.888700 11865.141410 12242.727666 10946.637888 14610.937968 13423.324378 11662.190241 13299.073095 15742.850214 9352.987631 13350.497254 11713.364293 13404.329630 12150.833192 12324.531497 9017.245672 2808.531772 14221.568101 13135.491701 11816.540962 11386.156361 14695.521098 15199.292766 13397.704658 15680.311586 12747.717924 13079.923655 12880.196219 11411.470638 12290.521209 13795.745129 12816.367975 11366.392874 13762.563984 13815.679880 15593.690954 12675.504397 11031.202587 12661.103478 12999.634085 14500.463853 13416.466504 12246.195105 13575.040336 12943.440340 11692.089841 12242.096052 10979.786280 4940.631899 13369.438061 13850.568555 11720.259220 13939.524852 10405.287381 13743.644210 15290.883576
</DataArray>
<DataArray type="Float64" Name="Velocity" NumberOfComponents="3" format="ascii">