<VTKFile type="PolyData">
<PolyData>
<Piece NumberOfPoints="2177" NumberOfVerts="2177" NumberOfLines="0" NumberOfStrips="0" NumberOfPolys="0">
<PointData>
<DataArray type="Float64" Name="Pressure" format="ascii">
 14270.660720 14064.848439 13607.215908 12910.206317 12059.941934 11126.235607 10121.796532 9035.107107 7885.625887 6732.865129 5643.630365 4655.956187 3747.263311 2892.083162 2119.415616 1464.612886 925.590265 479.765631 106.973466 -205.785864 -467.747452 -687.144057 -871.698716 -1028.106968 -1161.683331 -1276.564894 -1376.440741 -1465.382336 -1546.726760 -1619.522845 -1679.556250 -1723.828145 -1751.294064 -1762.035068 -1756.770062 -1736.635767 -1703.063847 -1657.683173 -1602.230299 -1538.468285 -1468.117510 -1392.801254 -1314.007114 -1233.063572 -1151.129992 -1069.197854 -988.101887 -908.543167 -831.137116 -756.531569 -685.729448 -620.821497 -565.870487 -525.549411 -501.190260 -490.753871 14458.281048 14297.270804 13874.923624 13126.237674 12223.538656 11227.226321 10211.893125 9140.308959 7940.759270 6701.539783 5582.718312 4664.122785 3827.494295 2971.259907 2157.704681 1474.402430 926.733643 480.474544 108.586145 -203.734458 -465.756378 -685.417622 -870.203659 -1026.647897 -1159.867182 -1273.606846 -1370.970959 -1456.452678 -1538.828244 -1615.799825 -1678.042616 -1723.149110 -1750.893935 -1761.734203 -1756.515205 -1736.413132 -1702.870933 -1657.519958 -1602.096613 -1538.363172 -1468.039212 -1392.747399 -1313.974904 -1233.049879 -1151.131114 -1069.208290 -988.110027 -908.517129 -830.979428 -755.941473 -683.817258 -615.798984 -556.131106 -514.991969 -492.465398 -483.702352 14760.611765 14716.812030 14335.342004 13245.738765 12776.109635 11066.126420 10087.723363 9367.792809 7964.514137 6503.353055 5463.032402 4634.190764 3866.512104 3097.495996 2210.752217 1489.468790 928.599604 481.035448 110.063996 -201.734108 -463.766301 -683.668036 -868.667880 -1025.112403 -1157.864135 -1270.063252 -1363.127290 -1438.657735 -1520.896969 -1610.840038 -1676.921214 -1723.015642 -1751.043849 -1761.957913 -1756.746249 -1736.628411 -1703.061572 -1657.682469 -1602.230078 -1538.468208 -1468.117457 -1392.801145 -1314.006775 -1233.062472 -1151.126405 -1069.186150 -988.063700 -908.418574 -830.730715 -755.204323 -681.433351 -606.087115 -533.555286 -494.642190 -477.431171 -471.874421 -488.513187 -470.455372 -463.235626 -442.385876 -435.845361 -432.267391 -394.639605 -393.068681 -391.637414 -353.652178 -353.223334 -352.724488 -316.596585 -316.502501 -316.311717 -282.832793 -282.836512 -282.745245 -252.052292 -252.083902 -252.025392 -224.049676 -224.087910 -224.041411 -198.646898 -198.685244 -198.644359 -175.673141 -175.709614 -175.672361 -154.960286 -154.994312 -154.960046 -136.342899 -136.374355 -136.342826 -119.659346 -119.688259 -119.659324 -104.753039 -104.779496 -104.753032 -91.473522 -91.497635 -91.473520 -79.677328 -79.699222 -79.677327 -69.228603 -69.248412 -69.228603 -59.999523 -60.017382 -59.999523 -51.870523 -51.886570 -51.870523 -44.730378 -44.744749 -44.730378 -38.476147 -38.488975 -38.476147 -33.013013 -33.024428 -33.013013 -28.254040 -28.264166 -28.254040 -24.119866 -24.128820 -24.119866 -20.538342 -20.546235 -20.538342 -17.444142 -17.451078 -17.444142 -14.778348 -14.784426 -14.778348 -12.488030 -12.493339 -12.488030 -10.525809 -10.530433 -10.525809 -8.849439 -8.853456 -8.849439 -7.421391 -7.424869 -7.421391 -6.208448 -6.211452 -6.208448 -5.181326 -5.183914 -5.181326 -4.314310 -4.316533 -4.314310 -3.584908 -3.586814 -3.584908 -2.973538 -2.975170 -2.973538 -2.463233 -2.464628 -2.463233 -2.039370 -2.040563 -2.039370 -1.689430 -1.690451 -1.689430 -1.402774 -1.403650 -1.402774 -1.170453 -1.171209 -1.170453 -0.985033 -0.985691 -0.985033 -0.840453 -0.841034 -0.840453 -0.731896 -0.732418 -0.731896 -0.655691 -0.656170 -0.655691 -0.609230 -0.609683 -0.609230 -0.590912 -0.591355 -0.590912 -0.600104 -0.600552 -0.600104 -0.637125 -0.637594 -0.637125 -0.703249 -0.703754 -0.703249 -0.800725 -0.801283 -0.800725 -0.932824 -0.933452 -0.932824 -1.103898 -1.104615 -1.103898 -1.319464 -1.320291 -1.319464 -1.586304 -1.587263 -1.586304 -1.912588 -1.913704 -1.912588 -2.308012 -2.309313 -2.308012 -2.783958 -2.785473 -2.783958 -3.353673 -3.355435 -3.353673 -4.032461 -4.034508 -4.032461 -4.837901 -4.840274 -4.837901 -5.790076 -5.792818 -5.790076 -6.911810 -6.914971 -6.911810 -8.228934 -8.232566 -8.228934 -9.770542 -9.774704 -9.770542 -11.569274 -11.574027 -11.569274 -13.661585 -13.666996 -13.661585 -16.088024 -16.094164 -16.088024 -18.893502 -18.900446 -18.893502 -22.127551 -22.135379 -22.127551 -25.844560 -25.853354 -25.844560 -30.103987 -30.113833 -30.103987 -34.970536 -34.981523 -34.970536 -40.514292 -40.526508 -40.514292 -46.810795 -46.824330 -46.810795 -53.941057 -53.956001 -53.941057 -61.991497 -62.007937 -61.991497 -71.053794 -71.071811 -71.053794 -81.224627 -81.244301 -81.224627 -92.605323 -92.626721 -92.605323 -105.301358 -105.324541 -105.301357 -119.421740 -119.446757 -119.421740 -135.078239 -135.105122 -135.078239 -152.384456 -152.413221 -152.384456 -171.454735 -171.485378 -171.454735 -192.402906 -192.435399 -192.402905 -215.340844 -215.375133 -215.340840 -240.376858 -240.412859 -240.376846 -267.613905 -267.651495 -267.613867 -297.147635 -297.186637 -297.147510 -329.064282 -329.104414 -329.063878 -363.438476 -363.479198 -363.437163 -400.331120 -400.371144 -400.326857 -439.787898 -439.823591 -439.774057 -481.840135 -481.860313 -481.795199 -526.513668 -526.482438 -526.367791 -573.865114 -573.663478 -573.391527 -624.105219 -623.326151 -622.568962 -678.240128 -675.252076 -673.232554 -736.821426 -725.711301 -721.031232 -767.029274 -749.188635 -741.463939 16100.370069 15678.786575 13637.943068 11208.358362 12535.315955 11141.818951 10940.495279 9722.098964 7894.319283 6881.231372 4981.787440 2495.568751 1968.174994 6669.060592 1629.818831 -870.982706 -960.476417 -617.583317 -263.076757 -2.465553 136.720103 155.760657 72.063917 -90.815437 -308.132571 -555.049146 -807.624504 -1045.138540 -1252.622580 -1422.060174 -1551.779981 -1644.623734 -1705.815056 -1741.209908 -1756.191577 -1755.163650 -1741.460919 -1717.489640 -1684.954893 -1645.088153 -1598.833071 -1546.977405 -1490.235692 -1429.294129 -1364.829861 -1297.514356 -1228.006334 -1156.932935 -1084.842459 -1012.061704 -938.292444 -859.677216 -788.798555 -758.152784 -745.019726 -740.369439 16034.610292 15636.135147 14350.844200 12769.262388 12582.246215 10788.707031 11313.157746 11312.067308 9748.641951 8548.773843 7032.050206 5329.180032 4147.413750 3489.707984 1053.867206 -164.793245 -440.159030 -310.169021 -91.593286 91.606070 187.451944 182.589413 85.967561 -83.733528 -304.514807 -553.077464 -806.363163 -1044.159763 -1251.772387 -1421.308784 -1551.135650 -1644.093265 -1705.392917 -1740.880567 -1755.935322 -1754.961436 -1741.297074 -1717.352722 -1684.837386 -1644.985618 -1598.743197 -1546.899189 -1490.168871 -1429.238937 -1364.787310 -1297.487787 -1228.006813 -1156.997060 -1085.091034 -1012.901745 -941.068167 -870.785834 -809.100745 -772.740058 -754.989156 -748.368829 16057.676270 15751.507023 15151.362038 14374.831081 13576.501639 12425.189121 11964.798476 11505.050128 10538.841505 9364.008922 8131.842539 6706.310744 5039.775627 3270.086884 1614.469656 526.192709 66.686427 -7.044752 81.088610 188.821315 241.653675 212.473788 102.279034 -74.951786 -299.952877 -550.932041 -805.615133 -1044.192730 -1252.194526 -1421.874016 -1551.702082 -1644.592292 -1705.802786 -1741.205272 -1756.189883 -1755.163053 -1741.460718 -1717.489577 -1684.954878 -1645.088160 -1598.833109 -1546.977534 -1490.236112 -1429.295495 -1364.834305 -1297.528820 -1228.053404 -1157.086132 -1085.340931 -1013.686450 -943.526450 -877.879879 -822.568789 -784.411469 -763.077131 -754.468251 14939.129803 15008.815856 14531.612721 12422.298649 13171.287262 10943.269935 9736.145708 9305.811907 7504.250397 6052.566176 5601.543956 4753.241818 3680.482942 3135.122414 2257.528589 1492.298593 927.989278 480.362264 109.799899 -201.763005 -463.713551 -683.595888 -868.578713 -1024.965247 -1157.545732 -1269.255625 -1360.531994 -1429.473467 15340.113736 15876.200390 15328.913596 13712.234139 14512.028336 13909.536492 13389.534228 13540.699195 13636.715735 14225.933346 14661.002431 14951.106901 14770.749043 12468.175900 10899.742727 17070.903030 8603.903884 14755.342440 15866.084115 16527.116826 16289.168834 13612.283851 15820.818937 13707.137723 13250.025405 13402.196426 2570.537991 2803.711813 15697.856198 15792.847501 14498.368246 10653.850242 12294.922016 14062.295978 13041.780831 12090.356984 9527.223336 10875.741128 12364.425336 9157.723500 15389.066659 12973.251348 9917.064546 17197.006922 12142.210532 12669.121236 14495.323221 12495.361620 12500.536602 14802.361125 11647.485421 15093.096741 15845.297553 12518.597309 14757.939701 11041.510971 15783.923607 15656.990487 16286.158349 11581.361855 15285.369387 6675.631978 12299.937095 13270.844213 12376.800691 11817.589810 2825.710375 9980.316526 15943.507991 11648.776102 14189.651544 12390.282009 12245.192455 12005.202750 12670.732433 11840.087033 11063.122475 7969.658881 8619.786706 12194.366782 16004.176729 7774.324439 14592.935940 10089.556302 15693.792316 16600.468313 18940.327145 16231.295847 10852.690777 12740.974131 11193.175955 4452.865799 15781.274776 7670.232469 10080.977266 16315.708690 11906.603202 13916.913019 3687.475480 6663.468962 16007.858928 10872.802177 11047.021651 14421.966099 2599.568986 12504.021916 15737.740370 6953.642561 2967.972819 6581.747425 3251.595151 7646.348336 15693.889175 15856.959803 16038.739837 16410.833069 11563.573379 16408.951985 14303.120844 9483.772575 14757.886240 11223.059490 11841.685360 12018.362429 13723.347664 5871.223996 8376.547880 13920.952758 11105.671379 5808.513193 12861.689962 12379.989314 8819.987437 14279.019218 12671.625627 12139.131613 13914.477971 7526.461248 6023.725862 6204.637505 15721.400054 15473.660527 14301.906614 14236.367266 12397.037632 12048.078093 4617.847367 9328.629049 12542.393177 8779.460548 10785.849905 11164.523039 13759.568020 14197.817670 14682.719596 7860.573076 10218.142831 11033.381386 10120.326197 9812.777707 4939.864466 13462.481575 9921.600791 13389.023345 4821.640184 9061.247416 8330.970105 4485.258226 15860.246718 14343.160973 11164.842836 13381.820372 12592.398176 14222.404752 11755.412935 11517.237735 11826.380785 12913.227445 12740.548755 13426.908798 8404.870164 8013.097440 14401.948715 13133.512304 11434.777997 15142.802940 7375.385005 10988.500710 14631.938726 12802.994649 5517.258636 5905.179565 9587.179457 4122.853291 3743.144925 7438.425565 16211.877069 15714.124432 14902.988445 13247.576755 14267.045959 13483.191676 12942.503710 13926.620797 9360.846274 8623.590438 9759.943160 9367.801694 10022.308033 12002.341306 8633.531773 4786.293915 11731.912565 5367.124495 9754.072166 3824.492730 6789.235047 9423.668652 6318.059895 8213.111450 4494.991135 3339.750679 5697.241803 3617.995792 16499.840513 17016.726783 16254.026417 16280.067037 14422.740968 10457.650263 12832.125784 12451.552912 6970.653956 10184.726643 5249.856495 8339.312532 4365.603164 8030.673936 5312.447370 6399.372762 6601.160705 6851.778315 8787.576994 4973.860488 11432.249553 10068.027472 7697.417418 8975.954554 11103.259099 10465.376156 3304.015267 2757.984962 16590.850400 16916.905053 14867.063578 12361.693670 12933.063569 13205.283436 12044.854782 11417.233315 9938.974663 16937.428795 10624.016061 11719.114575 7518.712555 6907.313846 11947.160716 6042.216625 4396.577640 8065.717212 9110.213848 7980.635030 10072.539323 3873.981159 4428.711177 6605.497038 11743.193703 5761.799671 5578.933092 1500.729388 16502.816731 17414.570507 15801.510031 16967.281775 11848.632146 13593.869363 16319.646864 11383.911690 9823.802198 9654.196269 5892.798581 9237.961355 10351.216978 8985.932331 9498.192949 13154.377014 12735.719920 7772.890698 3636.644622 5571.842420 5069.534836 6116.967475 9519.023930 9098.303576 6011.167876 11413.820364 3757.828525 6009.841798 16292.662589 16838.590987 13573.962640 7838.221520 10912.375472 10403.200312 10278.223242 6977.625668 11784.986632 9058.564401 13699.226072 4570.319648 7594.835277 4520.595344 11443.513450 10458.848945 7749.882704 3499.110485 9726.202984 9002.087138 11044.344383 11287.616447 6210.409309 8958.013046 9513.691846 13112.269579 4622.176428 10205.746245 16130.505716 16307.571935 12610.493421 15852.099102 14870.756420 7811.590681 13927.359604 14263.004833 6404.816969 11604.806129 11867.760596 4777.682176 5622.376482 5642.178447 7275.646137 3545.457834 5402.178689 3237.472784 12054.254696 5013.863938 11018.143255 5171.532346 12300.417305 6305.605920 7794.851780 10154.884130 5932.092800 3956.760133 16063.452116 17562.357524 18208.018271 11906.636489 13452.826877 15157.221928 13176.663703 11394.873418 4389.495516 15129.778455 16438.416561 6634.322700 6291.433054 2799.348724 3620.595675 5095.171213 8360.780842 2688.236149 3523.573283 5921.912812 5322.326735 3037.510934 4668.519432 6464.028719 3513.595615 4410.242320 4870.902171 4982.178046 16155.611621 17583.459056 18396.114819 16599.170984 13472.991777 17192.477899 11276.728813 12775.365256 8174.256104 8043.478517 8544.872745 7083.344517 7694.168254 16336.760125 16815.846384 16976.188078 14880.619347 15900.819821 12718.350298 19322.047325 10242.585987 11280.565735 7586.114554 2898.953309 4899.983266 3115.036273 16439.459488 16827.026148 17651.430917 9731.524155 12983.058840 11679.657909 8947.633091 8269.839073 5874.048505 7551.622335 6156.884528 4809.186780 2498.197849 16482.848057 17380.184398 18378.535524 9482.816975 10962.540113 9385.278744 12473.882521 9786.024938 6308.963720 7103.032927 9596.374298 12350.346825 2437.274701 16449.662693 16786.864600 15353.718370 17735.514659 7755.798074 7146.099676 10524.417230 14305.246098 13107.197360 6896.483336 5383.336039 4769.182207 7368.974784 16389.769769 15689.095931 14443.586431 19044.903714 14630.086669 12039.535284 9743.098394 11746.688047 11623.694353 5537.259184 6054.299652 4774.340343 3272.903562 16445.115131 15343.283784 14672.598282 14684.386246 16876.837544 11395.984295 9367.740498 8538.616644 4538.104990 11901.176086 5808.326284 8194.286195 3167.994251 16663.984024 16070.828313 15194.141400 16839.550299 14275.371329 13595.261142 8749.585732 5464.826101 7890.629199 6366.357576 5475.857970 4987.412801 7091.407623 16757.580460 17480.391937 16897.658328 12835.712491 13485.390462 14576.804204 9546.096081 9943.418806 10989.904708 7959.981857 6847.997684 4665.958351 5262.779213 16668.060370 16803.570181 16120.697746 7754.020933 14325.124630 10474.294301 10117.765300 8928.043159 6504.880505 7093.985581 10071.226565 4965.615298 6082.767493 16794.345863 15925.974292 15566.459549 17221.649502 13519.260768 13209.557078 13577.495942 5806.039259 4632.176878 4823.486946 12336.978571 10772.441099 7021.468313 17146.996152 16552.044281 15079.152980 12198.926135 11061.233906 12778.506663 5957.705312 8357.632763 10159.452359 13091.188279 3782.754331 9439.986892 4226.064374 17338.127757 18312.554046 18344.326934 14203.505462 15055.330442 14365.303777 11884.186195 12615.942172 8779.014309 6759.575058 13562.827648 5054.265764 4373.621655 17374.253304 19485.451191 20554.186688 13168.348554 7840.203485 12637.436378 5524.166778 3931.758240 11655.476819 14151.201883 7361.030486 6544.727331 6585.970497 17262.273458 18248.168701 17185.800716 9939.939729 10346.156575 13899.910583 9343.211987 12429.542604 5467.171877 7593.847458 5567.830759 9778.729237 7356.560574 16662.927121 18039.590701 18484.968844 13605.734314 13084.055531 14641.206001 12624.643807 9764.384748 13672.482039 6972.215012 5390.038742 11021.444770 8993.362115 16110.317873 18468.936157 19948.682204 12662.686791 8799.602017 11466.340938 3920.749404 13861.053718 5940.559089 16196.024243 8793.331597 4266.360268 5357.314877 16241.981807 17592.571399 19630.640346 16375.551550 13050.946482 13592.624449 7710.638522 13832.039842 10369.041922 14224.858962 10124.879713 5648.125300 9795.699444 16812.800259 17124.982623 15954.995612 14085.018485 10859.969950 11963.906366 11944.968356 9555.338827 9535.326579 7550.240915 9850.771153 10729.435092 4709.638315 17136.796454 17042.058950 17135.492688 13864.870370 17504.099563 12166.779244 8101.842262 13042.880390 7060.434154 16340.651661 6781.878705 6449.938794 7212.293905 17322.030124 17220.359696 18369.962793 18337.693259 16429.241337 12382.486637 10956.805995 9981.736456 12444.832494 4564.349546 9811.630440 5028.977914 10240.012689 17906.042994 18963.970232 20958.472494 17688.108522 13938.106443 17643.156406 14380.828819 16004.381054 9325.793861 9855.894444 8962.761723 7139.436682 5365.911886 18497.690183 18246.947521 18602.457353 16824.192513 17496.807388 13122.196597 13752.682555 11409.408182 10484.052900 12474.244971 6948.695869 3454.280583 5700.733025 18676.840972 18401.011274 16759.334900 14409.487698 18770.464184 13999.351599 11503.158457 13609.285491 13204.717842 15587.688111 8986.625341 5276.740332 5697.084824 18581.694468 19136.037738 18034.961835 13085.937807 17014.759907 13530.107747 14332.469254 14612.187123 14663.035624 7061.405490 7715.280149 10652.163609 3487.851102 18465.624210 18367.005388 18223.146381 19975.134707 14101.137984 7991.361577 16837.629131 14788.909593 10552.268025 5514.679435 9368.204715 6838.957292 9902.561629 18520.338442 19155.510637 18489.442668 11349.299754 13634.450936 11948.119279 11855.201761 9638.880753 12493.513553 8590.960286 6296.138308 5007.115925 4406.946879 18450.542463 19661.271453 19708.704912 12385.046111 12476.506344 10041.773019 10746.691455 10259.859949 9777.358099 9357.148074 4755.218922 10089.287148 8429.391083 18358.064140 18954.244569 20198.600758 13613.477905 14718.694881 14674.382252 10883.357821 12542.343243 9482.159420 10779.973820 9286.165698 7906.825807 5576.091882 18742.066286 18684.082015 20206.634130 15358.806253 15264.750675 13935.343641 18772.426703 16591.116092 14087.316373 11691.666426 7552.832830 8030.704000 6817.429413 19197.151259 18659.144932 19993.860024 16329.980924 10703.733177 17132.210096 12286.012373 10054.189830 8862.268274 6886.640167 10787.653311 8281.871571 7909.374650 19454.222966 19574.937406 19885.487213 16227.679727 16937.119088 10725.478105 17628.254113 9383.942136 8147.680874 9067.658609 6383.025182 13585.694628 1648.465846 19468.310137 19747.457484 19159.180143 16399.707301 15804.037771 13585.733164 8078.034843 8400.428471 6447.021762 5922.249816 6524.456896 10142.557409 6451.363806 19332.835833 19612.985291 21029.442469 18631.498341 20461.377815 11828.255480 11786.799011 12619.938912 12552.181754 10264.812877 7954.230404 7228.426208 2972.296128 19120.296665 18571.652710 20969.756924 17178.459501 16423.902973 15611.567595 11200.546815 11741.342416 5939.437736 8449.591275 7793.086185 4690.118756 7205.626461 19288.839135 20636.498764 22165.164829 15499.725582 7922.791106 17996.372887 20288.985108 8161.029710 12328.691771 11180.651657 8998.583234 8071.517160 2023.176174 19391.101574 18297.809805 17156.723005 18413.939724 17313.718562 14355.474963 9516.976257 7426.016608 6131.010651 13596.327678 6951.144434 5108.028990 8165.959532 19506.406888 20954.753223 22629.593967 15677.681600 16371.126473 9220.185932 11816.862834 9127.757560 9690.791674 10800.859097 11054.071300 9041.305383 7172.498314 19556.456764 19680.665599 17026.121354 19122.196787 13151.450845 16196.461377 12965.057261 13620.213351 9713.259438 7076.382407 12422.395156 9505.338417 6142.627420 19691.562755 20355.748973 19373.393356 18226.683468 15113.892891 16463.070380 15543.455262 10972.008633 7356.036088 9535.275657 6957.331349 6971.832626 5412.651161 19851.770067 20121.895540 19154.453269 17336.913494 13778.422319 17592.818583 10800.703857 12173.116814 6945.174246 12577.092382 11053.650929 12431.972335 2705.894962 19644.203329 19230.505057 18372.704745 19966.868142 15043.164981 13920.237489 13617.872035 11184.498025 17718.989932 8317.369647 7210.805441 5899.719443 5226.935453 19337.133736 18955.446405 19656.340778 15364.101520 20288.470529 17257.482335 12218.755053 15752.440733 12653.017548 13021.260357 8388.864751 15130.106867 3849.171130 19284.840407 20723.905595 22809.489407 21775.530525 11630.995248 7351.347173 16193.998054 14198.214294 13932.232550 10223.281270 9425.248316 6998.098746 6313.634891 19547.876432 20613.132830 21237.110901 19239.783381 15923.171618 18779.951733 16935.751693 13470.125282 12078.779958 7775.611203 10160.616437 7563.907057 4320.591466 19690.073665 19774.522003 19949.229648 11684.811433 14596.807853 13509.239582 12329.697130 9691.475376 5016.647427 16619.717434 17759.191417 7863.982221 6554.621550 19662.126515 20209.133564 19634.983566 12141.768577 17528.405250 15321.307449 16453.175274 9177.049782 10529.549441 4354.548047 11044.584658 6642.250139 9919.285542 19598.718515 20281.524635 20524.541381 14232.107886 13525.738425 12729.578592 12000.100830 10294.720922 9839.768808 12487.879747 8448.864095 11466.249556 4419.758379 19758.028119 19694.319296 17807.821308 17435.579131 12666.126024 15606.324441 10508.526492 8964.682769 10840.991419 12000.182358 4011.583720 7882.345002 4707.455663 19893.577004 18833.698845 17422.726859 16412.150025 14948.100463 13142.926995 8264.459373 12966.017170 14882.133802 11004.099628 13161.025759 6694.661510 3135.876896 19938.183463 19861.244518 19253.150272 18549.504329 15592.000283 17106.744594 9228.086192 14289.940155 8881.560200 5896.846214 12584.751833 4911.802060 6958.147320 20113.244521 20492.226940 19864.455958 17556.191432 15504.376617 13970.292862 18733.116120 11159.016548 14333.075508 6038.421208 5310.836666 10206.471064 3963.838761 20198.083194 18450.051602 15393.724933 13605.990249 14674.251199 9410.834321 14477.132368 7789.503869 11987.914330 3028.391719 11530.192526 4917.501351 8929.262634 19864.268661 16573.952474 14187.568999 18006.264517 13550.196985 14816.303393 10470.742899 12540.705003 14305.316325 9724.518872 8747.550587 10986.430268 5187.527902 19496.169288 17214.704808 14371.537709 13967.539902 15797.139135 10727.035277 16015.323255 10956.274365 9429.027753 7110.816296 6226.160825 14433.007903 4898.708912 19294.037296 21150.057989 22886.143115 17560.774159 16019.561954 15211.580925 17440.773431 15597.822606 9031.408406 9400.264164 7446.663611 3664.440197 6616.508882 18708.953049 18246.190277 19628.294035 15264.937501 13712.999268 14067.851908 10860.694848 13628.869794 10136.419773 9048.826100 6825.532090 8472.625980 9844.859494 18139.496888 14601.607796 12159.731696 17713.946763 14987.464171 15247.337737 19609.827591 13076.337792 6226.443107 12696.616082 16583.280362 4061.512120 7484.706683 18233.906320 15845.243649 13282.921468 17101.622045 12835.619088 13025.375591 13533.344413 13776.025944 10718.620963 14437.775953 7905.079901 4478.935631 2560.213347 18592.361934 21779.340464 25629.299371 16003.313096 16106.138854 16351.794321 13255.151414 16075.076014 7402.650351 12680.725110 7555.419244 5512.049072 3430.502590 18649.549754 20146.871783 21845.259170 18764.767723 9708.269836 14605.805124 14334.378303 5597.978386 10067.167443 4318.347819 6089.777632 10199.894321 2293.286106 18649.128942 18944.311940 19156.288226 12065.387433 18325.676260 14198.172605 18211.534159 7902.837302 12265.266984 9361.131222 8747.380373 3622.775899 2739.335396 18982.316465 18193.279558 16565.184584 15191.028398 12944.335105 13216.651160 13748.727291 10833.637617 15860.810469 15444.269792 4161.778775 5288.609370 8963.011653 19239.962409 19590.628013 20206.798943 14968.944575 9230.690869 13697.892215 16464.935601 15093.426207 10263.933211 9182.329840 16492.228956 6601.258141 1811.397314 19066.000692 19729.934797 18909.653561 17870.959700 11408.334371 10252.919074 9387.829550 11741.423936 10834.846097 14716.572052 7471.657588 6567.700553 5676.878918 18504.864421 16580.057340 13222.773782 16016.406942 11567.266552 11595.082589 9604.795635 12954.227990 10845.404669 9821.952123 6969.985135 5129.018289 3622.599598 18098.832335 15797.575394 13017.946602 17782.864792 14543.617577 13412.179664 11518.976380 12943.412084 8154.080530 16100.820445 9629.263829 2995.905208 3840.255962 17934.656570 16751.048265 17687.748063 15027.277857 14462.293886 17117.273883 15369.433603 13600.938668 6766.614206 10497.506973 8199.313963 7661.683347 1136.269470 17575.576921 18687.300771 22213.916001 15151.339907 7656.097167 8885.018160 17378.933250 12014.347481 14316.471693 13836.619770 5713.269447 5592.854855 3869.987067 17308.248900 19291.441957 23468.137497 14517.584084 17843.915668 13439.971752 11649.309035 9306.358961 11381.942845 8082.491564 7898.377726 8719.510331 3098.620586 17619.290820 16016.762859 15644.514131 10704.031457 9209.643182 10558.801246 13861.101428 16213.294786 9054.101298 16716.078336 2529.007458 15236.194235 1301.786583 18198.557272 16561.796562 16185.734150 17049.386629 12820.114103 6795.764256 11262.326611 13393.008641 13043.942706 11882.670681 6678.573981 5291.293103 8255.891616 18583.742447 18380.702917 18094.835134 12972.100743 15952.894825 9344.693365 13254.893082 10794.719660 11958.676561 12817.202533 16363.555292 11196.061613 4704.846653 18758.974738 20367.996650 22171.658077 18466.495065 20745.212484 16516.339017 14513.795558 13901.048709 9400.231049 9224.961987 12443.837140 4125.155032 5146.469464 18744.257683 18187.296899 18105.176512 14925.756202 9279.487364 8499.362459 15628.287790 15928.994573 12033.141231 6863.862303 2926.479229 10065.822821 10523.767790 18789.737507 17002.663140 14891.642006 14134.709823 13335.958642 11801.637487 8873.681082 16529.879152 9295.115611 13583.712149 14272.750549 8455.197553 3779.354473 18802.732978 17591.062048 15123.814072 19576.457367 15789.948324 13506.326781 14726.636896 14272.748940 14895.391805 12246.054579 8763.221689 7381.065463 5472.934533 19003.192062 17518.498747 14402.605259 15955.666711 16749.933228 9681.689938 12101.115190 9550.887825 7205.028480 11885.527081 10301.428087 14611.329919 7124.793768 19371.654695 18408.162005 14226.177922 14667.632013 11216.951388 17463.789783 14318.145352 10015.233331 12246.959237 10386.467408 8363.856415 5443.630059 3125.025377 19360.241099 17529.979034 13850.920911 12776.406785 6169.127985 16956.262073 9595.917594 8530.327300 11364.522344 13573.842796 11415.292487 5039.882448 3663.024627 19002.973584 18459.229582 16772.382415 18017.202078 14986.940402 12689.021028 8728.798871 10327.749841 7408.425751 9565.838034 5947.628168 4797.391209 5820.768303 18299.401341 18124.132135 17019.830281 11560.229767 14554.847674 14638.509756 12207.003765 11966.541645 9207.543560 4227.746968 12407.961361 10222.461128 11807.348886 17539.418031 15783.110908 12970.765975 12351.791866 14833.555622 6887.372573 18525.035127 18119.669235 14192.339769 15329.971721 11678.074391 11598.767383 4380.845442 16974.970456 14967.080649 12668.103249 17842.687473 14876.438704 19163.420751 15205.198731 13715.647422 10196.811837 17635.051080 17550.085661 17555.364796 9454.411678 16416.523911 15799.322653 14439.956452 18625.023065 18510.513691 20576.707791 18598.798353 11088.043513 13967.808528 13263.915494 15188.511672 11166.253454 11597.509756 16100.370069 15678.786575 13637.943068 10828.187507 8488.324495 13404.647973 18345.120150 12399.040057 14122.775173 11534.280077 11325.494267 18626.468823 13282.402310
</DataArray>
<DataArray type="Float64" Name="Velocity" NumberOfComponents="3" format="ascii">