<VTKFile type="PolyData">
<PolyData>
<Piece NumberOfPoints="2177" NumberOfVerts="2177" NumberOfLines="0" NumberOfStrips="0" NumberOfPolys="0">
<PointData>
<DataArray type="Float64" Name="Pressure" format="ascii">
 14793.088638 14591.631759 14154.587079 13484.850382 12647.427538 11683.140379 10571.628153 9342.856123 8010.121542 6576.648135 5058.659540 3492.907942 1981.832829 630.500360 -507.278391 -1426.722575 -2129.690105 -2628.846452 -2955.129662 -3145.977002 -3235.039265 -3250.447143 -3215.866091 -3150.926850 -3070.946910 -2986.530116 -2903.256667 -2821.645993 -2739.154823 -2654.760589 -2569.317624 -2482.252765 -2391.662277 -2295.667748 -2193.126536 -2083.825920 -1968.405233 -1848.153021 -1724.761809 -1600.091345 -1475.970566 -1354.052749 -1235.726115 -1122.073819 -1013.872707 -911.619066 -815.571271 -725.804358 -642.283475 -564.993834 -494.245880 -431.335530 -379.315759 -341.746728 -319.242050 -309.601362 14841.266987 14697.808849 14290.522212 13549.659748 12600.672535 11668.242625 10634.169794 9474.473317 8148.542714 6685.566468 5191.833206 3597.335976 1991.627127 573.045644 -533.417005 -1412.500384 -2111.922152 -2618.413357 -2949.210957 -3141.992355 -3232.113944 -3248.423991 -3214.721651 -3150.652061 -3071.659227 -2988.736076 -2908.108025 -2830.030210 -2746.707001 -2658.179802 -2570.509521 -2482.579630 -2391.690956 -2295.595902 -2193.027408 -2083.731171 -1968.330720 -1848.106696 -1724.746524 -1600.106337 -1476.012622 -1354.117218 -1235.807720 -1122.167185 -1013.972428 -911.718750 -815.659773 -725.853285 -642.207187 -564.527913 -492.606647 -426.965202 -370.886587 -332.850933 -312.129886 -303.996378 14963.811666 14849.654184 14315.244514 13744.439057 12901.995698 11565.139634 10831.816066 9810.804653 8464.021477 7045.817548 5858.021649 4176.948751 2102.064471 235.025971 -699.774183 -1427.201200 -2095.954312 -2607.461032 -2943.108337 -3138.006862 -3229.214614 -3246.414818 -3213.587629 -3150.414667 -3072.514587 -2991.472113 -2915.222823 -2847.134055 -2764.706324 -2663.352936 -2571.877727 -2483.026642 -2391.894889 -2295.737468 -2193.147358 -2083.832114 -1968.407068 -1848.153561 -1724.761965 -1600.091383 -1475.970552 -1354.052665 -1235.725828 -1122.072873 -1013.869610 -911.608923 -815.538057 -725.695615 -641.927573 -563.827580 -490.459722 -418.283976 -351.063277 -315.631823 -299.924370 -294.629952 -311.078158 -294.788027 -288.067251 -272.991575 -267.152532 -263.829699 -235.298687 -233.895200 -232.589693 -204.278806 -203.900696 -203.444701 -177.235631 -177.155710 -176.980413 -153.424291 -153.429851 -153.346134 -132.428739 -132.457381 -132.404810 -113.949507 -113.982527 -113.942182 -97.732475 -97.764353 -97.730232 -83.548114 -83.577340 -83.547427 -71.185094 -71.211381 -71.184884 -60.448183 -60.471611 -60.448118 -51.157392 -51.178152 -51.157372 -43.147445 -43.165754 -43.147439 -36.267275 -36.283353 -36.267273 -30.379483 -30.393540 -30.379482 -25.359724 -25.371964 -25.359724 -21.096044 -21.106656 -21.096044 -17.488153 -17.497315 -17.488153 -14.446667 -14.454544 -14.446667 -11.892328 -11.899071 -11.892328 -9.755205 -9.760954 -9.755205 -7.973911 -7.978791 -7.973911 -6.494817 -6.498943 -6.494817 -5.271307 -5.274781 -5.271307 -4.263057 -4.265969 -4.263057 -3.435350 -3.437781 -3.435350 -2.758440 -2.760462 -2.758440 -2.206963 -2.208636 -2.206963 -1.759388 -1.760768 -1.759388 -1.397529 -1.398662 -1.397529 -1.106090 -1.107017 -1.106090 -0.872272 -0.873027 -0.872272 -0.685408 -0.686021 -0.685408 -0.536655 -0.537150 -0.536655 -0.418714 -0.419112 -0.418714 -0.325589 -0.325909 -0.325589 -0.252384 -0.252640 -0.252384 -0.195117 -0.195321 -0.195117 -0.150575 -0.150738 -0.150575 -0.116183 -0.116313 -0.116183 -0.089899 -0.090003 -0.089899 -0.070122 -0.070206 -0.070122 -0.055629 -0.055699 -0.055629 -0.045513 -0.045573 -0.045513 -0.039144 -0.039197 -0.039144 -0.036140 -0.036191 -0.036140 -0.036348 -0.036401 -0.036348 -0.039843 -0.039900 -0.039843 -0.046927 -0.046993 -0.046927 -0.058151 -0.058230 -0.058151 -0.074340 -0.074438 -0.074340 -0.096639 -0.096761 -0.096639 -0.126561 -0.126714 -0.126561 -0.166061 -0.166254 -0.166061 -0.217621 -0.217864 -0.217621 -0.284351 -0.284657 -0.284351 -0.370115 -0.370497 -0.370115 -0.479673 -0.480148 -0.479673 -0.618851 -0.619441 -0.618851 -0.794738 -0.795466 -0.794738 -1.015905 -1.016799 -1.015905 -1.292660 -1.293753 -1.292660 -1.637332 -1.638663 -1.637332 -2.064593 -2.066203 -2.064593 -2.591803 -2.593744 -2.591803 -3.239406 -3.241734 -3.239406 -4.031348 -4.034127 -4.031348 -4.995533 -4.998836 -4.995533 -6.164314 -6.168221 -6.164314 -7.575005 -7.579606 -7.575005 -9.270427 -9.275820 -9.270427 -11.299464 -11.305756 -11.299464 -13.717633 -13.724943 -13.717633 -16.587661 -16.596115 -16.587661 -19.980045 -19.989778 -19.980045 -23.973595 -23.984751 -23.973595 -28.655941 -28.668672 -28.655941 -34.123989 -34.138453 -34.123989 -40.484304 -40.500663 -40.484304 -47.853398 -47.871819 -47.853398 -56.357918 -56.378569 -56.357918 -66.134684 -66.157730 -66.134683 -77.330570 -77.356174 -77.330570 -90.102204 -90.130518 -90.102203 -104.615441 -104.646609 -104.615440 -121.044605 -121.078750 -121.044600 -139.571446 -139.608671 -139.571432 -160.383810 -160.424183 -160.383764 -183.673975 -183.717506 -183.673824 -209.636650 -209.683231 -209.636160 -238.466671 -238.515884 -238.465078 -270.356559 -270.407071 -270.351380 -305.494546 -305.542164 -305.477709 -344.065167 -344.096478 -344.010439 -386.259285 -386.230725 -386.081419 -432.317116 -432.083878 -431.739036 -482.677906 -481.744953 -480.800674 -538.732604 -535.140835 -532.606633 -601.755947 -588.353458 -582.430753 -635.468447 -613.608877 -603.975215 17925.851627 17667.250403 17343.383359 18577.117852 16746.867744 19841.095213 17515.753045 21109.683889 20441.735881 17181.774729 15040.098739 14364.600174 14217.068345 14265.391748 11492.499268 12450.982545 16965.413343 12676.776377 8651.213043 6340.438606 4430.921133 5384.717324 4369.461934 3172.478647 -3772.617500 -6196.779345 -1895.201521 -1690.234214 -2117.324754 -2389.674478 -2468.880014 -2458.198372 -2415.703874 -2360.987322 -2299.211069 -2231.719202 -2159.030821 -2081.501509 -1999.470517 -1913.310928 -1823.454261 -1730.400230 -1634.714832 -1537.019611 -1437.974921 -1338.259382 -1238.545827 -1139.468545 -1041.559844 -945.074128 -849.500330 -749.983799 -662.136223 -624.615428 -608.457073 -602.517569 17583.849911 17926.564511 20514.788163 20842.527032 16631.878406 18311.861620 16929.110704 17916.065875 18072.279476 16877.571069 15883.477113 14706.869864 14539.830827 14392.616258 13597.529167 13096.106954 12609.743614 10987.055041 9522.192509 7882.796733 6025.699902 4488.750101 3124.948190 1868.171238 483.461627 -738.989336 -1230.926713 -1686.534759 -2159.120214 -2404.561398 -2472.140278 -2458.664202 -2415.678993 -2360.900281 -2299.123407 -2231.637027 -2158.954123 -2081.430374 -1999.405582 -1913.253195 -1823.404880 -1730.360325 -1634.685417 -1537.001690 -1437.970052 -1338.271675 -1238.588495 -1139.585347 -1041.895708 -946.118703 -852.872647 -763.438366 -686.264458 -641.247018 -619.282178 -610.955000 17195.572664 17454.116687 17901.474232 18015.203193 17931.603972 19088.045054 18853.850784 18127.091439 17395.531073 16555.120429 15740.618453 15023.187281 14730.175723 14468.470003 13933.359558 13067.564131 11868.889108 10484.512991 9081.136074 7530.025426 5847.693789 4180.226919 2673.849775 1503.300149 599.126652 -258.966776 -1064.492222 -1759.425829 -2216.132169 -2425.058951 -2477.401063 -2459.795556 -2415.948615 -2361.018471 -2299.214374 -2231.719495 -2159.030843 -2081.501511 -1999.470522 -1913.310943 -1823.454308 -1730.400383 -1634.715330 -1537.021235 -1437.980216 -1338.276644 -1238.602101 -1139.652004 -1042.157746 -947.026094 -855.796420 -771.945605 -702.288025 -654.680479 -628.160173 -617.408535 15043.634452 14812.234145 13896.438626 14046.784544 14556.944355 11898.404901 10755.552781 9911.034698 8863.744401 7924.843572 7411.039480 5453.796607 2484.572359 -237.524673 -979.660677 -1441.653953 -2094.615565 -2606.635457 -2943.096343 -3138.136574 -3229.296496 -3246.455097 -3213.629776 -3150.514375 -3072.781562 -2992.210224 -2917.685967 -2856.137852 15284.340725 14909.596515 13705.056462 15906.857576 13974.409172 14362.453421 16572.703599 18105.149404 15735.552618 11767.616918 13241.276776 14039.739952 16905.506192 13999.562627 12642.089800 13890.227807 12494.989710 13857.814735 16504.874571 15897.608006 16460.595085 14776.321791 12377.447294 13283.319786 8892.314931 16081.852885 4755.138061 6788.673844 15703.386644 15937.218517 15445.702996 10920.394659 12430.334010 11719.519674 12815.329906 14017.701629 14912.225536 15610.102087 13019.847468 13600.092409 14623.610921 13042.014720 13184.643997 14131.992313 9373.638195 14953.394275 16818.979076 13340.206269 14175.180326 18271.347737 12976.552647 14371.300976 14770.543138 13774.675310 11811.976837 13178.226817 16062.344031 16244.807035 14377.495109 12295.761453 14040.807631 13375.689234 11113.955186 15780.088121 13064.600077 13361.379363 4161.029756 10215.086082 15313.841494 9597.791191 10452.271369 16679.614325 11360.493939 13098.281800 15793.851802 10646.474138 18911.636163 9931.290428 10613.326856 11430.062978 17782.209632 9192.696949 18265.667776 9628.378739 16253.154198 15548.950371 11548.148953 15447.107748 8896.271948 14259.489768 13839.029043 5400.195582 14583.017818 9633.585113 7999.850680 14487.661768 10983.901902 14320.329228 5796.065500 7978.755582 11684.952225 10114.558230 11818.261675 13286.618811 3218.271197 16897.969543 17060.344417 6224.169804 3477.241473 4911.514078 4277.664756 9772.630379 16444.839572 17041.430087 12335.119615 14449.099638 12253.751895 11681.609181 15702.147871 15119.977734 12645.692708 11339.456262 9903.065463 9080.799081 9953.376718 8234.411491 11223.946927 12067.787803 9997.863166 7739.919318 15975.000649 13738.054401 9153.756035 11824.378527 11712.953121 11571.785933 9960.204906 9451.362079 8038.908639 9127.152904 16400.381174 17176.220812 14853.861653 12752.949782 12706.639895 14118.337877 7465.163606 10931.250493 12341.061220 6071.644867 8415.360189 13153.841350 12592.690226 14679.069369 11649.350952 6730.483209 6155.130675 12170.746104 8854.392423 7298.804549 4995.592417 12082.590199 10471.578113 10758.327888 10133.745036 9701.318032 7477.229592 4248.494980 16196.747255 15563.330352 15998.906618 13183.703401 14405.693352 10643.360064 12010.472069 12860.622991 13715.527873 11678.371026 14835.097949 13409.145170 8148.336360 5946.916868 12797.281887 15116.004519 10580.668895 13147.577135 8571.900307 5333.353781 13699.503042 13099.428106 6114.789424 4157.627835 8651.498211 4429.673495 4464.446406 8823.692152 16256.182411 15279.606186 16698.053936 16531.706930 14733.539676 14101.666426 13940.931008 12753.701991 9867.628785 5580.331171 7338.965437 10455.034716 10881.690316 13555.289577 7668.985912 5628.893197 7915.254093 5243.132290 7747.717958 4181.850984 6633.228224 9985.165105 4104.134272 7547.189569 5997.240262 5658.014693 7990.488842 3908.248610 16667.718088 16162.188626 15904.844040 16301.507971 13885.378625 12300.245011 14568.642387 9788.808521 6282.490764 10408.933996 4978.639600 6715.027316 3522.614959 8419.555915 3709.758627 8919.940727 5298.543746 5944.387574 12055.522079 6143.851825 11492.250874 8596.467233 7927.130545 10280.181462 11126.098481 8650.284480 5087.813291 3519.798514 16864.021840 15646.071373 13167.838074 14508.592595 12476.923983 12509.203984 11819.818794 13501.925487 8379.305450 11122.772730 11950.514826 11649.472026 7296.266555 9274.714115 12635.509072 2537.201095 3059.924521 5464.147266 10917.549405 6754.599694 5985.217907 5613.866945 3338.981967 4559.063987 7319.897631 4818.364403 5790.657311 4550.615527 16732.710881 15999.231237 14378.341042 14992.589910 10363.018890 16195.096135 13278.650048 10295.317116 7126.485011 9308.747986 5374.526575 12374.301744 9992.394644 9370.106408 8567.836110 12168.984671 11546.173305 7839.876742 1801.104622 4578.645030 5646.942429 3584.868877 8487.432378 8210.464961 4078.397658 10010.908232 3410.128642 5866.993150 16671.066304 16324.803758 15203.634464 11068.638523 11102.719551 11442.611875 11988.950294 7867.821698 9905.381137 8513.174326 10012.695600 5304.397376 6420.234920 4202.756624 9518.024816 10797.106643 6518.188916 3603.375203 9250.781910 8997.542203 8974.806506 9306.738759 8108.961380 5630.076915 10126.949382 8921.681922 2339.864969 7089.524910 16780.302071 16392.856780 16610.274472 14265.266389 13160.583563 4949.222439 14971.760186 13035.220003 5641.945378 14251.004166 14636.821756 3422.826086 5065.404889 4392.499876 2516.745461 2204.776450 5202.683464 5067.652934 8150.288488 7208.141685 12822.476795 1399.502021 11584.789385 5382.095277 5524.388227 9622.546076 4353.364460 3386.843315 16859.587671 16931.845525 16120.505415 9593.286045 16530.923394 14242.873770 8492.112416 12637.121968 4542.421584 12985.570956 10160.831591 6711.691263 7691.393947 3066.977237 3474.947963 2146.981616 1899.952494 4168.973064 3470.089956 645.837889 2444.822930 3563.585118 3649.661748 3111.931635 2180.497669 2893.882397 4361.476341 5058.907767 16881.115317 17197.455304 18340.661150 15652.477960 15687.024577 15701.868757 10055.801908 11046.827235 7437.744799 8491.881427 7652.626192 6543.737181 3350.030169 16801.638640 16889.753146 17835.562160 16115.078334 13910.539896 12305.966466 13242.753842 8916.448429 10026.661535 7059.301416 4503.578686 4134.741370 2589.868840 16737.575400 16449.750395 15941.903216 10540.271929 13096.276793 10798.212468 8264.115491 8043.494058 4728.788054 5979.575689 5319.541800 5652.367274 3750.138441 16568.861588 16186.277163 15031.124684 9440.291577 10788.566156 6567.099758 6904.538955 12816.753930 5616.661382 3456.357434 7679.859755 10172.802632 2827.870344 16283.655401 17588.983945 19733.095386 13560.675548 6183.881587 6855.865617 6764.246553 14305.352907 9352.062444 6607.917122 4352.213341 2225.755616 2451.894395 16084.628005 17378.081673 18774.520514 13337.500111 13327.083670 10293.844357 10252.223751 10344.597458 12217.795056 2782.773322 6679.286673 3168.243957 2041.720433 16093.439485 16940.180103 16769.071811 15342.456585 17605.761502 10176.539551 9915.671208 8169.701646 3602.709620 12086.847741 2752.815612 9383.522839 4335.342475 16152.176028 16778.853216 17653.663382 14125.132385 11820.260602 11329.758228 9194.917959 2880.265400 6758.773684 4704.405594 4662.205949 2647.494472 3238.248860 16301.648751 15790.324013 16766.501752 14032.930996 13895.792729 13556.774314 8313.996039 6714.638415 10958.479921 4560.796993 5903.286662 2973.044432 2501.410885 16460.259840 16163.529958 16054.162009 9702.506737 15476.664706 13411.681188 10277.249500 8549.792521 7724.804754 3898.079717 7115.251803 5541.106207 7283.942399 16630.080306 16048.655424 15465.211266 14936.606521 15520.003588 9423.953562 13796.697993 5756.107430 2914.946039 5749.448032 9301.608592 7857.067568 4037.667961 16763.394485 15807.626441 15895.547544 11338.808110 11756.327181 13929.800468 5328.197606 9827.332839 6977.909280 9824.434400 2948.473303 7077.990718 3000.445982 16891.093563 16435.243767 16529.050666 16126.321744 14132.623256 11501.178644 7486.222758 10342.040306 7906.231660 6082.848272 11926.702638 5755.275570 2792.172949 17071.262193 17143.970327 16263.167698 10678.997981 11071.762485 12025.091090 4692.959605 2243.394711 8393.551577 10007.736689 5573.293811 3746.022508 6360.833265 16914.109182 17352.565056 17527.183953 10602.675104 11751.957637 13491.699423 6628.509217 12082.103132 2893.455054 7244.072432 4459.680861 7905.466721 2772.500096 16570.149771 16433.597426 15338.747153 11520.417869 11079.374587 13099.392398 9663.091427 9616.575327 7860.957337 6347.291318 5706.826825 6807.556250 2233.884098 16492.441916 16211.132741 15403.993883 13182.914147 7871.441080 9658.379539 1592.335962 14063.478885 4388.912313 11193.792368 5900.364381 4212.729614 2777.016272 16616.878646 16227.845464 14871.514592 13375.305348 10335.500892 14183.517402 7283.625387 14165.718222 8188.179139 9381.257110 3958.383780 5551.045078 5699.443511 16792.829839 17247.357766 16252.971324 12825.586289 11037.440861 13143.287605 10692.382784 9955.936906 5548.786075 5522.501889 4959.956705 10249.365034 2900.674413 16785.982940 17360.654160 17027.354146 9117.446090 14697.213382 9709.462847 5985.350502 11779.589563 3847.590963 14877.808843 6791.636636 3771.957406 2810.609115 16672.717160 16875.788666 16738.818444 15477.144762 11855.798314 8170.091163 10480.282036 8243.218514 9110.964074 2410.133826 4257.256145 3164.146183 5401.955234 16698.733586 17108.828357 16505.363630 16345.950606 13828.264814 14074.736574 12129.422149 11529.158715 7200.525016 5794.519804 6774.626581 4477.577665 3206.747531 16777.668266 18399.222039 17574.514626 14838.954257 11557.138408 13036.535335 14848.051463 12207.171434 8760.193214 11651.023861 3520.476139 3088.174501 4664.051951 16880.673243 18194.675676 16330.039259 13043.501981 14560.406593 12938.456954 10955.040015 12798.901674 13141.063762 15570.732781 10565.377560 4560.201233 3633.653972 16928.974521 17129.403100 14703.468565 14668.449845 13120.392153 11611.374129 11576.690452 12561.187237 12198.827326 6025.282615 3721.298082 10223.874420 2493.515563 16795.556202 17093.579463 18300.638167 16229.665839 19314.807476 4012.670507 12855.272377 11305.127063 13015.107217 6003.504382 10640.038913 7055.437862 9408.882622 16593.628838 16012.232093 16479.432807 10257.269306 13840.344543 13353.679314 6089.772578 9192.570067 11695.352367 7450.870540 8495.411069 3793.446028 7601.335071 16659.877078 16627.871112 17673.072064 12169.554072 8729.323041 4620.591162 9144.912203 6498.498481 10162.247759 11358.264646 5733.051783 12476.739729 3199.753745 16754.943292 16194.625098 17454.994370 12570.740984 13902.427686 10949.583380 10076.462838 10466.620431 9164.302440 8612.650967 6553.594702 6372.746039 4090.589353 16744.688260 15238.603057 14142.545790 12709.187599 17352.464749 13549.396829 14323.042420 12547.943517 9794.164851 7260.525866 7683.076760 5834.140346 2084.250570 16800.698505 16101.482208 15438.712296 14888.166099 12172.569748 16193.734375 12334.196222 12583.586545 4889.084172 7201.101640 6928.858040 5181.605831 4604.273053 16876.715609 16893.752134 16392.337447 16546.121412 13716.829507 9193.375213 15041.770567 7642.465052 4152.384545 9457.605076 3108.132002 7723.757195 5088.610187 16881.108572 17371.751179 16201.135414 12357.279103 12201.977529 10787.091988 7185.550978 3570.352687 1699.489376 6101.294902 8470.557523 9429.314974 4403.123388 16964.116398 17180.551858 16270.397773 17434.863176 17978.317758 12982.459959 10726.858221 9522.977981 13508.364490 10479.613339 6778.322592 3902.126573 6179.569005 17269.096294 17239.874310 16790.050533 15573.672522 14177.548544 12877.451247 10357.115135 11545.105768 7167.882925 5139.754671 6630.071686 6331.411262 5818.296905 17587.743502 17815.696978 16904.546949 14888.313615 10189.065837 15617.538793 17204.837965 6233.230701 8978.336618 8228.886062 8556.221678 5246.636218 5064.254926 17646.341114 19219.777847 18838.525165 16391.771307 13247.190721 13849.918053 10951.898310 5533.566249 6246.982308 11633.319411 7752.108020 4344.492660 5492.343560 17529.840540 18977.258918 18148.263502 12945.048148 14017.567172 7397.871490 12903.862655 13027.170299 5516.306758 11869.748273 7782.844051 7295.727992 7863.197089 17590.850247 17952.099318 16928.271153 14109.209784 14875.010335 13409.991820 11241.786488 8337.597417 10409.836087 4392.184755 8641.603483 8215.873609 4485.290801 17616.621993 16899.899137 14630.278555 14857.416345 14542.531260 14460.578731 14059.158901 11830.843034 6966.435218 8578.612764 7913.142442 15072.597210 7253.226170 17457.082203 17403.281308 17027.677034 14357.861619 12162.814050 11531.484863 9332.101296 10134.735209 4594.121044 15039.798768 11458.711109 12172.784426 3806.893656 17185.300621 18001.677539 20391.052207 14657.119163 12823.599402 11002.402283 10914.097114 7762.838494 14808.038002 8331.692098 6022.410454 4154.179719 5732.390658 16922.043271 18124.949063 21705.786902 12845.206777 18460.323404 14022.717384 9214.616472 9557.789751 13626.071543 7611.381098 8565.966196 15275.920936 3659.396960 16980.183274 18081.945091 21134.147583 16752.558443 13425.354035 10630.819217 14424.103940 16279.386283 10914.572229 9954.222986 10601.199829 4506.258223 6966.678303 17412.900056 17035.332855 17857.285504 15334.104331 14702.475937 16444.565781 13461.249430 14924.153111 12576.852497 3234.705903 6314.739332 11176.402408 4907.294536 17765.946161 17281.285287 16229.303592 11544.364508 11099.630922 11917.830728 9799.194231 9424.241203 5768.071746 14805.151038 10435.413502 5679.587309 7558.502848 17907.486300 18018.984622 16479.944118 17380.926206 18833.519973 18145.729954 16446.766798 13916.419351 5960.390036 10959.382425 10528.435593 4376.707514 9443.063098 17827.486235 17906.751053 15844.480367 14706.276474 14492.574001 8385.674883 14015.426606 11390.500108 10048.371286 13428.545164 9494.552201 14722.803832 164.023711 17776.360359 18220.418801 17229.532325 15713.544407 11800.680153 15422.948581 11332.691642 8688.502001 4159.401184 11377.200245 8415.808607 9886.629695 3970.267863 18012.950289 17917.243801 17235.309172 16719.708843 18749.000117 11607.985763 9333.633766 12639.834089 15162.299953 15788.337554 16756.956928 7398.320718 1748.544861 18446.847440 18266.992181 17102.935307 18994.848712 16973.964472 19028.468006 7444.577070 11128.655697 13504.629020 7003.801548 15065.408053 7807.790384 7313.509204 18921.761449 17878.951068 14453.435954 20014.125089 16238.167442 12170.393090 16034.126145 10679.452786 13838.209346 7588.480504 10352.802843 8061.075486 6894.820314 19051.512615 17459.831549 14995.731053 19095.813638 15874.585691 5856.484720 14047.821802 10606.385852 17634.964858 2757.476236 13694.989978 6888.988303 5884.996004 18479.515564 19060.263703 22852.151214 16016.277146 14277.702834 14171.245665 7691.791812 12383.418057 17013.898799 6513.461195 14139.621800 14655.468018 6270.003740 17949.871915 16427.984120 20331.380817 18190.471857 16832.789409 10229.369616 13367.829325 13718.540363 14424.898555 11813.377386 9710.379844 13971.553471 2287.828497 18157.939849 16833.197471 17899.794999 17663.307815 14174.654169 12192.524803 15199.865004 11690.234214 16834.831992 12400.552556 10134.041063 1858.786716 3788.599044 18941.451499 20593.656987 21156.118197 16545.656387 9980.503658 13374.867079 12405.528498 13843.798720 15801.577169 11882.439229 11356.229702 8489.162199 7364.646294 19646.923569 20944.987403 19799.993161 17002.639383 11215.176354 15794.118638 17853.596810 18774.435842 17684.386651 13860.521850 18730.256768 6339.824322 7111.072331 20043.123592 18885.603767 16220.584285 11806.382804 14976.298546 9933.481053 14266.158650 14874.586793 12729.880648 14150.008987 8129.609516 3120.323433 5234.982223 20196.616114 18909.131657 16516.529287 18518.214390 16487.186410 12654.389137 17152.792175 13873.510519 14449.853071 17096.053175 8381.379182 10665.050758 5911.969034 20166.577629 19854.177247 18424.239417 17777.884877 12959.031546 13807.261627 18711.767598 9661.266409 10799.494403 6552.665744 8463.450377 9638.184422 4002.050231 19986.153593 19137.785758 17551.976065 13119.545281 18386.843727 16527.564238 18938.196200 8221.575498 17121.967292 15999.482204 14739.370707 5377.729575 3722.054454 19937.991643 19521.862981 17497.018295 13505.591784 15941.598745 13748.406277 17670.007123 11960.310855 15457.531711 17028.003198 9202.319597 9461.514883 11834.022300 19861.933090 21525.410818 20394.244033 18194.044209 14633.281956 16327.873730 16843.939120 16255.626469 8144.042494 7096.632135 17235.443530 1044.929801 8881.870958 19984.079255 21565.528712 21641.759599 19510.866917 19651.058408 13608.364270 9082.074265 14489.477997 11322.371376 14808.272503 13550.767967 3500.498322 5582.520762 20179.976868 20020.255853 17910.407109 20822.432317 15829.714892 14741.308913 17824.325776 10699.584100 12964.848525 11531.852231 7567.112083 7593.390763 2487.571455 20162.488541 19963.621287 21334.198350 16931.727178 16703.449440 16981.037054 15676.964329 20666.470455 10197.538214 17848.940610 14859.147819 7877.145605 2953.807956 20166.328104 19723.149090 19602.556604 16941.223207 15490.884094 16954.507947 17015.085357 16414.013471 8194.558138 14300.686963 9642.775522 6696.827174 2321.446189 20540.337386 19874.987823 18237.478521 19017.117979 12366.130255 20479.522276 20165.659659 10711.805205 14978.235941 13566.371184 10622.487308 9688.057887 437.845575 20987.978646 20328.020751 18770.335416 17732.000802 21672.860051 18186.502941 20346.620046 15905.122331 24695.151092 14292.198605 13573.288412 13065.023000 5891.960448 21083.676599 21726.110507 20838.267866 18888.315461 16527.854093 18774.213863 20316.549076 18415.270888 16883.151501 18947.285141 7422.810391 20175.617540 -5570.410678 20973.333184 20949.450840 18993.903800 16589.665128 13568.727062 11527.068455 16434.889900 16323.919787 17063.561712 18277.405755 6423.146246 6577.415259 8753.680442 20885.414170 20643.772108 19057.157470 13367.409415 15033.521331 16659.699351 23125.575839 15797.866535 20923.184599 17500.719540 17525.571820 19489.575600 4645.251092 20906.606403 20279.990864 19088.656167 19938.795373 19414.385796 16789.127491 18146.464286 21973.805259 16103.080148 20224.876455 15643.617906 5575.885983 791.713547 21350.899868 20749.583055 20849.655635 18430.444381 12776.912657 14474.709904 19503.200466 15495.565406 16406.444937 7246.357296 3364.735795 11279.930582 9213.879658 21683.711981 21803.833667 22293.227345 19895.922542 17130.313144 20316.839921 19216.114773 15794.515018 10291.533677 19061.600021 15563.736046 10107.884423 8197.902517 21462.485791 21020.677786 20257.413427 18039.188008 20756.391426 22484.964383 16262.505719 17811.427533 20703.086769 16609.864469 18823.366995 8742.819239 5864.598395 21159.252006 22287.915059 23985.386622 17076.857273 17499.807161 16991.317465 15844.574093 17540.677583 11357.555730 16035.897202 14483.274804 17867.399401 6160.502271 21019.006877 22229.286400 23807.411484 24513.317977 18981.833963 20527.510965 21291.960756 15936.162109 16600.751068 11674.733842 10909.425017 8767.817527 3746.712992 20670.656846 19896.427439 14834.981488 14567.210129 19824.912686 21884.770186 16498.824433 14120.914157 16127.446814 15726.852886 15912.172044 5841.667989 6827.710480 20218.259739 21378.361675 19114.915530 16943.381739 13156.154075 18249.770123 15101.767148 19911.418883 10203.097124 14443.889571 6877.245331 5666.286848 5042.634435 19333.012733 19661.672971 18837.868636 12210.065509 16622.985759 19687.829145 18720.820552 26805.935175 18062.613593 3783.477400 21688.569264 19741.406871 15545.547476 18711.785004 16875.864773 16680.296582 23063.261704 19333.538931 16126.521318 18243.742391 18199.565839 20479.489431 16786.936474 19167.111039 19307.309164 6437.330312 18643.443861 19177.629434 22445.551958 21335.755038 14982.969013 17963.795332 23839.464479 23167.637447 22110.202037 21202.440970 16819.513584 19865.957611 21694.616601 18250.048883 16407.688825 9818.702724 18278.524510 21695.766467 19364.165908 15954.800287 15307.990260 16351.088467 18156.757551 16541.036434 19324.553558 19122.574512 17925.851627 17667.250403 17343.383359 19626.085704 14481.695038 18329.952433 21607.087092 19203.719813 20236.309494 17487.767767 19524.207185 20982.080591 23570.156784
</DataArray>
<DataArray type="Float64" Name="Velocity" NumberOfComponents="3" format="ascii">