<VTKFile type="PolyData">
<PolyData>
<Piece NumberOfPoints="2177" NumberOfVerts="2177" NumberOfLines="0" NumberOfStrips="0" NumberOfPolys="0">
<PointData>
<DataArray type="Float64" Name="Pressure" format="ascii">
 16086.643375 15682.065319 14943.280198 14045.961785 13138.714042 12165.549798 11038.033153 9806.913531 8452.687352 6878.119336 5134.939494 3486.100933 2228.639409 1428.423940 758.551729 -273.958865 -1715.490369 -3051.230804 -3991.740637 -4579.229423 -4920.675901 -5083.796495 -5104.903240 -5010.231757 -4825.544050 -4577.005054 -4286.912740 -3968.227522 -3627.935212 -3282.587025 -2956.406020 -2663.744538 -2407.360610 -2183.889277 -1987.650751 -1812.713968 -1653.919348 -1507.297730 -1370.124091 -1240.761836 -1118.408513 -1002.820244 -894.063846 -792.322036 -697.759284 -610.443935 -530.316273 -457.192007 -390.797858 -330.857757 -277.305296 -230.739546 -192.944158 -166.004139 -149.980132 -143.113176 15939.257669 15557.231150 14835.322672 13803.794407 12680.719446 11585.684243 10512.214759 9503.410641 8284.013410 6626.973892 4647.472674 2841.259102 1704.564139 1363.811006 1193.630530 168.697543 -1914.095631 -3410.614269 -4229.752977 -4691.328323 -4968.077199 -5101.552858 -5110.369165 -5011.909100 -4828.345137 -4585.444296 -4307.062205 -4004.160970 -3661.056160 -3298.367476 -2962.632864 -2666.215185 -2408.504931 -2184.528934 -1988.061166 -1812.997596 -1654.124754 -1507.454830 -1370.253822 -1240.878757 -1118.521870 -1002.934938 -894.181486 -792.441954 -697.879243 -610.560073 -530.421004 -457.265850 -390.782433 -330.573151 -276.218271 -227.803062 -187.316404 -160.235754 -145.542482 -139.723843 15875.803480 15729.847055 15768.836789 14422.554094 11985.006667 10550.334416 10327.372635 10231.750858 8369.759341 6604.894999 3919.371184 1607.015545 380.865611 1152.669780 2513.159658 1508.976763 -2794.662905 -4278.255454 -4567.270102 -4831.769544 -5024.933642 -5123.036549 -5117.466140 -5014.485691 -4832.129851 -4596.337461 -4336.756486 -4076.378286 -3737.876345 -3320.708344 -2968.205961 -2667.447502 -2408.517356 -2184.249966 -1987.762980 -1812.748823 -1653.930155 -1507.301076 -1370.125124 -1240.762151 -1118.408594 -1002.820217 -894.063663 -792.321408 -697.757211 -610.437124 -530.293906 -457.118570 -390.556847 -330.065814 -274.728264 -221.816687 -173.887525 -149.019808 -137.964161 -134.086563 -146.507820 -135.171061 -130.351074 -122.379800 -118.356322 -115.978221 -99.768244 -98.799766 -97.881033 -82.173358 -81.915366 -81.594101 -67.608209 -67.555150 -67.431528 -55.428065 -55.432515 -55.374131 -45.237745 -45.256712 -45.221285 -36.741064 -36.761880 -36.736041 -29.690170 -29.709281 -29.688637 -23.869824 -23.886423 -23.869356 -19.091525 -19.105618 -19.091382 -15.190505 -15.202329 -15.190462 -12.023545 -12.033382 -12.023532 -9.466992 -9.475119 -9.466988 -7.414852 -7.421522 -7.414851 -5.776928 -5.782367 -5.776927 -4.477021 -4.481429 -4.477021 -3.451228 -3.454778 -3.451228 -2.646341 -2.649182 -2.646341 -2.018372 -2.020632 -2.018372 -1.531215 -1.533001 -1.531215 -1.155439 -1.156842 -1.155439 -0.867223 -0.868318 -0.867223 -0.647417 -0.648267 -0.647417 -0.480733 -0.481389 -0.480733 -0.355049 -0.355552 -0.355049 -0.260816 -0.261199 -0.260816 -0.190564 -0.190854 -0.190564 -0.138485 -0.138703 -0.138485 -0.100097 -0.100260 -0.100097 -0.071960 -0.072081 -0.071960 -0.051453 -0.051543 -0.051453 -0.036591 -0.036657 -0.036591 -0.025881 -0.025929 -0.025881 -0.018207 -0.018242 -0.018207 -0.012738 -0.012763 -0.012738 -0.008863 -0.008881 -0.008863 -0.006132 -0.006145 -0.006132 -0.004218 -0.004227 -0.004218 -0.002882 -0.002889 -0.002882 -0.001954 -0.001959 -0.001954 -0.001312 -0.001315 -0.001312 -0.000866 -0.000868 -0.000866 -0.000555 -0.000556 -0.000555 -0.000334 -0.000335 -0.000334 -0.000171 -0.000171 -0.000171 -0.000044 -0.000044 -0.000044 0.000065 0.000064 0.000065 0.000165 0.000165 0.000165 0.000264 0.000264 0.000264 0.000366 0.000366 0.000366 0.000465 0.000465 0.000465 0.000550 0.000549 0.000550 0.000594 0.000593 0.000594 0.000551 0.000549 0.000551 0.000343 0.000338 0.000343 -0.000157 -0.000164 -0.000157 -0.001142 -0.001155 -0.001142 -0.002908 -0.002927 -0.002908 -0.005890 -0.005919 -0.005890 -0.010722 -0.010765 -0.010722 -0.018309 -0.018373 -0.018309 -0.029927 -0.030019 -0.029927 -0.047346 -0.047476 -0.047346 -0.072991 -0.073174 -0.072991 -0.110145 -0.110397 -0.110145 -0.163194 -0.163539 -0.163194 -0.237939 -0.238405 -0.237939 -0.341959 -0.342583 -0.341959 -0.485059 -0.485883 -0.485059 -0.679782 -0.680862 -0.679782 -0.942020 -0.943420 -0.942020 -1.291702 -1.293500 -1.291702 -1.753582 -1.755871 -1.753582 -2.358115 -2.361003 -2.358115 -3.142422 -3.146034 -3.142422 -4.151337 -4.155815 -4.151337 -5.438529 -5.444037 -5.438529 -7.067684 -7.074405 -7.067684 -9.113732 -9.121868 -9.113732 -11.664090 -11.673865 -11.664090 -14.819913 -14.831571 -14.819913 -18.697316 -18.711119 -18.697316 -23.428531 -23.444760 -23.428531 -29.162984 -29.181935 -29.162983 -36.068234 -36.090217 -36.068233 -44.330748 -44.356081 -44.330744 -54.156455 -54.185459 -54.156440 -65.771033 -65.804023 -65.770986 -79.419874 -79.457133 -79.419722 -95.367676 -95.409389 -95.367178 -113.897647 -113.943710 -113.896026 -135.310457 -135.359851 -135.305175 -159.923505 -159.972297 -159.906295 -188.072612 -188.107414 -188.016540 -220.123202 -220.099603 -219.940530 -256.515237 -256.284638 -255.920121 -297.918939 -296.972427 -295.981841 -345.985728 -342.330983 -339.649008 -402.707171 -389.007771 -382.681707 -434.417382 -411.718980 -401.560444 14321.497798 14517.965479 16234.910729 18511.582944 16682.565343 20067.405214 22213.366359 16876.663040 18261.455174 19865.005980 16844.602831 18102.340999 17537.260945 26593.351499 21843.492797 23762.150422 20415.922514 20449.973245 11336.110480 12505.846513 -527.444764 -2923.792574 -3146.289213 -3255.298078 -3322.701328 -3359.356483 -3369.702012 -3356.592671 -3322.231865 -3268.520401 -3197.251528 -3110.222942 -3009.287835 -2896.361023 -2773.395076 -2642.339736 -2505.095438 -2363.469001 -2219.136785 -2073.618207 -1928.260443 -1784.233575 -1642.534353 -1503.996188 -1369.302690 -1239.001901 -1113.517333 -993.147447 -878.029270 -767.981427 -662.023507 -554.680192 -462.143256 -423.166029 -406.331535 -399.934234 13828.472683 14312.310356 16697.963824 17716.621281 16882.740672 16565.051614 16179.451092 16680.385575 16542.901642 15267.515675 14388.309279 13925.762156 12829.381381 12661.956236 11255.223788 9810.436360 7356.391005 4103.545753 1411.220893 -879.573160 -2392.845769 -2958.044567 -3147.130691 -3254.848143 -3322.230399 -3358.935563 -3369.323509 -3356.248768 -3321.918535 -3268.236443 -3196.997405 -3109.999813 -3009.096831 -2896.202775 -2773.269463 -2642.245815 -2505.031503 -2363.432730 -2219.125425 -2073.628777 -1928.289918 -1784.279045 -1642.593191 -1504.066294 -1369.383132 -1239.094933 -1113.634982 -993.333239 -878.430130 -769.096606 -665.507210 -568.515749 -486.459954 -439.182436 -416.169742 -407.321992 13303.945038 13321.373555 13696.543012 14187.980055 14021.252065 13612.053447 13587.829405 14137.972177 13830.973988 12658.005483 11551.322810 10555.499754 9493.167124 8384.817838 7115.151978 5304.735978 3116.665824 935.059074 -776.995185 -1972.582432 -2655.045192 -2979.389807 -3149.471169 -3255.566163 -3322.726037 -3359.359067 -3369.702318 -3356.592713 -3322.231872 -3268.520402 -3197.251528 -3110.222942 -3009.287835 -2896.361023 -2773.395076 -2642.339736 -2505.095439 -2363.469003 -2219.136789 -2073.618221 -1928.260490 -1784.233727 -1642.534850 -1503.997814 -1369.308006 -1239.019280 -1113.574146 -993.333148 -878.636007 -769.967194 -668.442043 -577.159530 -502.614387 -452.247121 -424.340576 -412.991621 15943.423365 16038.348263 16514.693684 14838.756341 11595.237429 10287.238620 10334.347927 11466.889255 8962.358278 7115.026860 3662.592363 580.400046 -1725.837888 465.258319 3421.021601 2231.591020 -3502.109423 -4822.918972 -4678.308859 -4873.808392 -5042.094716 -5130.291463 -5120.637750 -5016.175084 -4833.842025 -4599.827707 -4347.403390 -4114.305281 16143.227459 15563.759356 14918.708299 13084.237953 16014.339634 18779.218307 15032.266316 14336.981798 13578.855186 11377.096731 15463.370304 11244.551750 15138.943867 13981.640342 15335.068389 17389.171935 11096.860555 12035.238523 15163.930016 14461.110555 16812.062159 13971.972774 12003.357491 9113.435473 8678.011109 10146.411475 7395.962917 3504.699719 16172.303131 15776.791484 17726.746040 10505.266381 13768.869854 14601.969976 13384.509387 12015.177589 14845.938463 14230.432563 12904.693199 11040.101775 17318.349203 12290.296938 10659.947648 15784.992051 7695.180525 12024.957929 17467.164348 14067.675870 13634.407448 12273.920539 16906.156939 14692.152805 13356.799954 14031.748781 7622.142325 12874.676937 16080.150503 15470.436948 17003.622127 13630.193147 14615.423917 9825.641856 15513.538030 14546.837463 11735.099041 6746.498250 1160.029332 8784.336919 11268.799428 11573.645085 12829.395643 14156.057891 10230.203854 14921.373961 14270.317405 11324.870738 13168.782232 8900.555828 9181.580123 9835.660521 12823.654609 10653.880280 17880.295019 5541.454991 16238.844057 15164.249752 15849.051643 16872.753842 8827.380540 13190.401663 8844.047635 3237.422506 12978.775769 8104.362291 12998.124837 12124.030878 14046.173491 12239.532448 3041.591489 8023.703653 12537.652013 12289.829281 7967.789377 11956.053988 491.390770 7630.263479 13442.435296 3076.949300 3430.231172 1403.754131 2223.905097 7562.558589 16613.205213 16232.544392 17329.495377 14752.619302 15509.272227 12064.966495 14636.076182 12553.371016 14343.047920 10064.432288 6709.721686 11714.406020 9144.411852 5284.556741 4593.890600 11095.086529 10986.310808 9219.813425 11827.952720 9871.505125 7148.462723 8911.082364 9855.893378 13933.343279 8426.489002 7156.379325 6308.305327 4803.170127 16750.389170 16126.356665 17613.366142 16487.000528 11536.799627 13815.037566 5110.585638 6202.522258 9741.813883 10876.005520 11522.133026 13746.661884 14230.658724 14269.520609 16061.135913 8873.230233 8660.671870 12439.882468 9300.903746 7544.739311 4697.585886 8765.604104 9575.429622 10330.577729 5774.436671 10130.928504 2451.455792 1829.522251 16709.518171 14635.775571 13200.939986 16385.492764 15456.153983 13790.765896 14058.980253 11445.989506 12633.324001 17013.596576 10383.083937 12983.770510 6953.804104 7647.279374 14898.316470 11522.062962 10146.254641 8848.073560 3196.349308 5828.826430 10412.884098 10532.792115 5866.659860 2784.395709 8195.425423 1385.852600 4911.321900 599.604539 16906.655622 15183.278277 13214.532614 16932.902613 16553.953182 15809.863787 12305.037629 17247.613219 10267.164240 5587.293032 8449.661400 11835.495512 13144.973702 15787.528031 10039.839883 6362.637105 6722.280758 2977.690524 7684.608331 1188.480728 6316.875755 9607.936456 2940.805126 6031.813350 5419.321659 4811.992077 4931.312316 2679.928907 16946.184672 16378.734472 16701.665255 13807.927016 17334.336715 13392.321896 14604.473431 10415.531172 4794.766517 10132.871988 3224.850271 5040.534763 3323.891247 3991.690548 6168.824617 10075.990283 5444.938790 4554.639211 10037.756582 4387.901735 11566.711990 10189.416469 7500.690632 4801.867788 10256.787881 5159.607731 1451.290343 2436.523554 16739.594402 16494.209785 16686.767258 16753.788231 12748.519001 14515.541040 13772.564622 14971.133534 10093.396101 16878.643382 7614.852742 11736.067258 4595.044453 8421.446062 12486.594150 1091.337941 3028.604994 1411.589132 10929.544593 5039.992797 6964.614222 6950.344535 5965.296003 3448.511242 8616.819270 2362.493909 1409.418583 2144.411066 16869.634201 17737.223401 19608.064486 16480.062441 9763.602702 14650.498631 15180.196031 10791.051248 5669.768697 8533.248905 4682.169303 9336.406858 10938.363395 7624.196821 8378.167421 17573.377625 14571.656861 8653.753436 4366.657170 4913.577127 4477.805825 1874.064921 3806.713601 6272.002528 4318.671335 6968.709092 1026.572327 2346.382402 17439.865103 19217.689708 20137.703298 13926.697295 13588.663778 11984.699915 12785.780935 6029.464394 10780.010485 8391.679627 11206.045501 5415.490270 11523.088956 5561.834748 8534.270181 8546.206616 6057.526162 321.440350 6716.745031 8746.419942 6379.226513 8177.086060 6119.950614 5576.835971 10189.822015 7613.774289 761.123038 5263.714566 18016.801372 19064.830091 17887.320568 14802.611756 15671.893153 4438.562007 15873.943599 14722.483105 5751.828771 15600.234049 14614.595347 4860.872921 10000.870465 4134.578453 4863.680755 2613.912657 7047.045817 2527.918704 12523.877129 4668.580036 11309.781499 1151.258203 9807.109189 7405.304034 2458.522344 15335.529655 4627.472830 1758.819975 18335.271191 18153.906344 15782.412823 16188.327383 15574.292565 17381.790345 12744.047026 11751.121638 4451.344333 15168.909899 10549.937205 6945.843720 7628.541866 3409.628138 119.675939 2911.490096 3783.252273 2343.400510 1685.326869 644.018780 2510.746892 557.379109 85.010258 1345.783565 -658.898809 6.401603 1890.930316 1905.523247 18626.083574 18437.010628 16985.954796 19040.165667 13634.136042 15706.184965 11506.931213 11410.468281 8709.112271 8991.363074 10776.012525 10313.940020 9134.549103 18698.752840 18284.968011 18383.028345 18085.208232 16259.165768 12148.321389 14196.526751 10450.011344 10908.754476 9487.336342 3062.827130 2177.838440 2089.464718 18476.518074 18448.329680 18368.866076 12143.057075 13016.098074 12352.222535 12176.191182 11041.790091 4645.359103 6728.785452 4181.060900 4151.827781 2786.183163 18262.871445 18450.074655 17656.660116 11075.382458 15674.954548 7482.011802 10604.032240 11163.983858 6294.166218 4005.360603 6124.818762 10778.214086 2685.279740 18017.632715 17847.537845 19338.083500 17769.346411 6868.204184 6768.570986 7290.423297 12060.526973 9093.997145 5831.866412 3524.570756 -366.981838 2203.991491 17848.879394 17266.797161 15711.690864 16770.903666 13531.756856 10048.685020 14974.100707 5758.143314 8022.105710 4829.051420 5309.216665 1522.871253 3135.457414 17606.524456 17436.039941 15441.982434 12803.539559 14425.080297 8836.974246 12065.200438 7977.719951 4281.913547 10704.991751 4549.826793 9582.342055 3182.840404 17486.868785 17990.374015 17475.905286 15577.700812 17300.858899 11867.250192 10282.905871 2113.181889 9560.648963 3550.402284 2597.855205 1635.886234 2640.090506 17563.504680 18844.534354 18495.547137 12731.454751 17678.253007 12686.258880 7539.053138 6360.170113 10575.758981 6097.882758 5787.279256 -466.781090 -135.157625 17659.617996 18280.451039 19142.604786 11990.273944 11318.504218 12302.320700 10259.318045 13480.394760 7595.581589 7316.512930 7235.667471 5653.680408 5160.608799 17820.043627 16951.574457 16565.698934 17578.779420 14715.718847 16462.122684 12749.721141 6917.841129 1592.743182 5189.220444 9655.599656 9048.112425 6862.197491 17950.563008 16506.723165 15545.021693 13841.915712 7897.676142 13379.434997 5432.254946 8778.687345 8900.834707 9572.962301 3456.509317 8438.081035 2112.577121 18046.174497 16725.946347 15372.754016 14824.882651 12509.977675 13911.762792 12209.858404 10047.821220 10387.191851 4513.888045 14453.685711 3303.493976 782.525678 18225.517880 17986.073404 16481.646731 16284.661562 11770.862913 10379.125078 5891.058953 5490.823921 7056.102189 15503.067471 5603.617741 1196.562860 3967.455245 18369.303399 18477.680939 17651.553559 10705.274910 14004.664831 11761.606154 9279.605634 17412.389391 5727.141974 7498.123731 2531.260313 8009.107502 838.326544 18490.568906 17895.424292 17353.728513 16101.354971 13266.067966 9348.032460 14818.590650 10424.692961 12546.538413 8344.545886 5092.770316 7348.254833 3329.735245 18829.804833 18450.245616 18538.334919 11292.468415 8959.915961 8752.228319 5980.527891 15379.956343 5083.413638 13803.752604 6592.279650 2178.781803 7215.226292 19171.013171 20036.436750 18790.381798 17314.064297 15612.263018 10895.899955 5848.894126 12601.857941 10964.737845 8004.788143 4747.064432 7852.692658 3828.145815 19067.720074 19379.006374 17233.547301 13756.689193 6855.237017 14568.408938 11967.367957 6519.851932 5768.812506 6489.624543 9403.810064 10571.194050 4791.101051 18902.352088 18307.812489 19117.215926 15914.503153 15875.942896 9555.225466 5665.054430 9872.085272 4944.506770 17644.232941 3028.133834 1389.083352 1414.858987 19158.514938 19101.881902 20843.441093 17720.916918 17475.989414 7342.349774 12359.801381 10354.794953 11574.981555 3915.501362 2867.945293 6378.141600 3942.626260 19433.910780 19485.864961 19285.588921 17373.741252 14801.225099 18313.249796 10118.442150 15269.870345 8274.122118 5990.366441 9016.276145 3830.271324 2666.030530 19364.226932 20295.896196 19782.837690 15642.518930 17133.752626 14171.996270 10620.305741 16744.061823 6587.868139 12541.108848 4302.548290 2383.211747 6715.224178 18846.591275 17184.646153 14155.580877 17878.342834 17371.232937 16070.490607 11823.007274 15202.085850 16656.952847 13249.026538 9031.562017 4676.256170 3574.357510 18465.945081 15785.231219 12078.408231 14900.625870 18328.568030 16515.587300 12355.006587 15490.760431 14477.511847 4368.206447 3912.271949 7357.794706 3956.901242 18227.325532 17876.476612 15866.528832 18408.951910 15426.680232 6654.402708 14298.265793 12275.829890 13728.944250 1196.503688 6015.515323 6138.063900 12537.744330 18008.597503 17248.656533 16778.457214 12397.732788 11866.454351 13607.529422 8962.735738 10119.950766 9279.723812 6387.816546 4519.641107 3192.078617 12403.704375 18163.995262 17091.595670 17487.821198 15093.438330 8980.502430 9368.867580 11489.111372 9345.422569 10190.323243 7371.503219 5899.886752 11872.331411 2641.876838 18589.690238 17117.573415 15657.474148 14280.653085 16670.303249 9023.891706 7304.292291 13889.837028 9176.394431 6538.303537 4839.374682 6618.133528 2077.440378 18962.072576 17245.558451 15556.049796 17119.751428 12108.650675 12837.945936 11565.240970 16890.607380 14699.497103 10727.795379 7106.384628 4074.634861 2452.351910 19215.359840 17605.794670 17223.082102 12253.136486 14131.541085 12856.103462 14846.007065 13834.653718 6501.036733 8716.944084 4604.689922 5486.996144 7276.694558 19333.571882 18506.856899 18629.753040 18233.613115 17913.293092 15039.712994 14898.249110 9159.274868 5048.228852 9507.483786 2245.556899 9129.143777 2338.494594 19306.377173 18070.870998 17551.769122 18181.311020 20804.436569 6793.000969 4136.035330 3186.011004 1748.911933 3028.443686 8234.023773 8358.146895 4358.586721 19348.540042 18497.591496 15895.884700 15840.965774 18112.961423 15380.710066 15424.906964 16211.817455 15024.903095 11042.683541 7493.067971 4482.211939 4965.018712 19299.342624 19562.671435 18211.983593 17903.578161 10474.081764 19722.577486 12035.295464 13456.666144 5047.321050 4457.421606 8359.025954 9376.456713 6310.665105 19233.841726 19430.085440 18876.609261 17035.761043 13278.438349 17694.534305 14492.699220 11261.723596 9919.341726 9367.382379 9464.134968 3754.374889 5666.638111 19337.347000 18972.988990 18824.217914 16721.647563 17448.348462 16286.633357 12092.816499 6761.874939 6844.329074 10939.679857 8695.358713 4059.244248 3024.510618 19712.936553 18621.360503 17277.187670 18839.646102 19276.969281 12543.444770 14142.784617 11170.951099 10331.382639 9800.639511 12216.805094 12960.728397 6199.011443 19794.032383 18269.823736 15449.162339 20369.663121 14578.219739 15051.601068 12142.853484 15303.550061 18653.706780 7586.211060 9143.090628 8463.933279 1578.080496 19556.725709 17984.514142 16823.979378 20125.336502 16547.533808 18687.183041 18366.955599 14776.943620 7902.251087 9922.159158 7904.723949 15463.522100 6615.551490 19773.065535 17627.303707 15095.900255 17034.659229 15952.045016 13779.009008 13628.736123 11581.296070 7709.988507 11483.770755 12991.364906 8127.962983 10229.284014 20257.861111 18036.669090 15435.634752 19245.956769 18652.471125 11910.523183 12282.996265 11353.725245 18607.739171 11370.030933 3860.784417 5682.601226 3595.653707 20445.518103 18763.574000 14668.885264 17904.241909 17280.527358 17469.720179 13329.191336 14364.748890 12165.902318 10586.876740 11735.471825 16737.438414 6648.048579 20478.991265 17535.326320 14803.528751 15936.480426 18129.373357 5048.891577 13839.554509 14348.379361 10196.413696 10401.304978 7192.527664 5499.384095 10530.070356 20359.692648 17686.901886 16512.428075 19287.552329 19191.840448 17745.967587 11318.470859 16603.298014 12278.446857 6175.625573 7787.257613 11513.676822 2261.389307 20258.973400 19015.875317 17856.275340 16511.500884 18682.029539 15753.117136 14488.621865 11193.915216 6475.657048 13983.808141 11395.600210 6236.286486 11731.674225 20121.669498 19107.423906 17905.298153 14431.978330 17123.436551 15381.853196 16727.394202 14718.841822 7489.009424 6637.133751 7621.037840 6584.332658 7274.047844 19828.704872 18598.698739 15407.029871 21249.930327 17538.688211 15469.428331 14115.489690 10667.388890 8539.356545 13527.285716 6360.599295 16532.277517 12092.971853 19978.144210 17996.573701 13815.149862 15011.083383 13589.763306 19751.526630 13884.737642 11136.740547 7080.958466 12075.366317 6250.390986 4212.205728 4537.945237 20274.999469 20402.844145 18646.272648 19699.212479 19094.511961 15825.674334 11350.037837 16612.511825 15238.783078 17167.765567 16256.260462 7556.217619 4376.660589 20175.805764 20882.826022 20687.166442 20605.351983 17957.602391 18350.635579 9770.642604 14688.511224 12866.769012 4624.225874 12297.222416 6910.479721 4838.140222 20029.212843 19780.130269 18912.474253 21624.561135 19193.524579 15032.182190 14861.656314 10295.671899 16692.612492 12890.647715 7629.056997 9389.964199 5371.802675 20270.877449 17703.095470 11834.106146 18788.754656 15671.146572 7331.718828 14651.262733 15478.964250 20285.378081 9523.226326 11059.585836 9951.135563 2546.624581 20689.223793 18887.654521 15406.607541 21281.697903 19424.694796 16984.099098 10682.328113 15805.085725 19242.755255 11048.094326 15739.283546 9868.345538 12803.983216 21009.004647 21030.049054 21930.887271 19863.840668 17971.217590 13214.265411 13355.058656 16743.868932 13113.710446 11907.727530 6983.936650 12885.962149 11096.826888 21442.016151 21253.984644 21760.471054 18186.136134 16525.752318 15203.197840 18922.473708 19693.125602 19143.180716 12739.270819 9658.409002 4032.526499 4726.720981 21732.907158 20428.222141 15807.412325 18271.523576 15032.534847 18699.183509 7868.115945 13637.380694 18372.976358 14778.541247 10294.119245 6129.042902 11064.138047 21838.702640 21694.815032 17376.777489 19497.395733 16663.625174 17637.682909 18637.593994 18228.011229 21980.156117 17935.768281 15721.516079 10351.190199 4984.094023 21996.626430 22852.832484 21222.038962 18998.643687 17721.764929 13579.775139 15332.855770 17128.616296 11268.347896 13747.397307 5559.727520 7021.207238 9229.770727 22117.214541 22589.045700 22188.970907 20125.262275 20029.876939 18907.982057 18629.022968 12881.762877 18073.879616 18303.378982 10898.581349 9496.320648 5179.032446 21923.956292 22908.041045 23553.868249 20564.883951 13163.747459 17144.362750 16662.817678 13573.933956 14945.911009 11446.379816 8965.939927 9437.694901 12979.080677 21504.634357 22426.277306 22207.409705 15519.655989 20392.882125 17455.586804 21555.841144 12885.092936 23295.755754 16613.726680 15545.306460 4300.044500 4081.530070 21107.763473 21129.081874 20629.739470 18893.035413 14243.731843 13143.657953 19794.637423 21213.040756 22298.714843 21306.875598 7939.024537 11070.998012 20501.203210 20912.984254 21009.693326 19814.002934 17269.787992 16851.333475 16597.519418 20303.069412 21568.369193 11302.226791 7497.247918 18031.143887 2818.613869 7586.965938 20810.421300 20928.351320 19091.903285 21675.882281 23248.328568 14036.559516 14082.007253 14902.200736 13338.442758 19683.249703 15611.513389 9132.472729 9785.334268 20471.352989 20714.308158 21091.640685 21097.286771 18717.450158 21766.166306 15023.834215 11332.800908 14005.472497 17657.413898 5892.185580 4088.702630 2971.172674 20049.871617 21386.882601 23654.624952 19639.745223 18293.739897 19613.734312 24375.515273 18504.074593 12417.269327 18215.993196 23285.013958 3769.111064 4245.691441 19989.797796 22233.122374 23283.837747 22550.501130 21832.609422 16485.847426 20820.403240 17318.386218 9779.959650 20169.202620 15379.073308 11107.704258 4379.624111 20021.064178 21766.963699 22321.475861 17427.632620 14543.813260 19861.726046 23526.129409 7992.451274 22397.701981 18310.115704 14425.463245 13360.998504 9981.535789 19973.813869 21627.683094 22058.305603 22898.984849 19466.676041 17013.457857 18023.287081 17942.353263 18040.008272 17612.663298 13645.292778 13526.807335 6804.842624 19938.971159 22280.040987 23519.241494 20679.701595 23103.143406 17008.542206 18251.983704 16683.426940 18121.027754 21494.267003 2120.897243 22736.316396 6529.648244 19437.558357 21762.473677 20845.786406 21613.273096 15327.534067 16872.496007 21303.591906 18260.503567 22291.595640 25350.521491 10386.977354 10368.311255 12676.999826 18755.792142 18949.775166 16831.977312 21104.822972 21897.232040 7208.852926 16555.494336 19832.717264 25063.376834 14690.708709 16220.295011 19160.466407 9878.401970 18355.985157 16723.736566 14980.974869 18767.910802 23199.948246 19976.647700 21498.697786 18349.966400 20032.337934 27002.868739 14740.045775 9188.906679 4821.573618 18203.456942 17878.828389 19924.251999 20372.054801 17341.748600 19354.730630 27228.426954 15721.347622 25692.022032 12197.646356 10875.568926 17932.198474 7975.301006 18047.399050 14911.813812 16036.158568 23588.061094 14069.423785 16600.020409 20656.772392 22114.365305 9513.518029 25015.164387 26275.641786 11840.957890 6381.722772 18183.349283 17026.774847 17622.582108 19152.131330 24474.475809 27021.158095 28474.489454 17273.168752 23508.533190 22090.844895 13059.331423 9825.398809 9595.291809 18186.927616 20068.371081 25519.324237 20556.296928 20471.103660 16857.110448 20288.764883 16079.957361 9369.537864 17957.115646 16145.974190 18694.886115 5238.105375 18189.670042 20649.969705 24945.905883 23394.947980 19707.756688 21001.397985 19677.417034 21583.522988 17700.635185 7416.303763 11139.482107 10380.345447 1914.415134 18121.973121 19543.166535 24134.589863 17118.478341 19501.984220 22708.899833 20300.761935 15547.567318 19731.847134 17169.902093 17899.338763 8391.566907 8204.578205 17515.826113 17847.653636 22034.626225 18678.085521 21263.172319 18034.552971 15917.667177 22342.322882 8459.683330 24925.305310 11643.534181 14568.327976 5962.654942 17004.529222 16761.886930 17760.547814 17401.868802 26047.908149 17252.281085 19741.207254 17487.692999 20967.036361 11056.649028 19357.158103 16656.768157 23991.985200 16562.593622 17486.820226 17892.824786 18227.170011 21473.424022 23139.960264 12228.581195 20711.991475 19899.961188 17850.754549 19476.196530 19222.199935 12960.488230 15858.475981 16778.155953 18860.476018 22230.296638 24683.362212 24378.704099 17953.540235 20198.231970 27859.992371 22499.454044 27078.425836 21086.045083 21212.686372 14876.289323 13709.816000 13371.576036 21010.245118 17849.515141 20072.710829 19366.886948 17595.485066 21004.968662 20994.959523 25089.105681 24162.538340 24704.712476 14321.497798 14517.965479 16234.910729 21153.348742 17382.157592 24022.053573 22020.589372 23438.492179 21341.401990 15673.262558 17823.375757 23308.237007 21516.312175
</DataArray>
<DataArray type="Float64" Name="Velocity" NumberOfComponents="3" format="ascii">