<VTKFile type="PolyData">
<PolyData>
<Piece NumberOfPoints="2177" NumberOfVerts="2177" NumberOfLines="0" NumberOfStrips="0" NumberOfPolys="0">
<PointData>
<DataArray type="Float64" Name="Pressure" format="ascii">
 17151.186788 16812.859903 16156.628912 15280.981395 14382.701905 13543.530787 12728.065042 11853.853545 10811.460337 9602.421086 8243.248381 6712.406537 5108.965026 3528.408682 2101.881354 1032.904167 354.446358 -46.131753 -295.072420 -475.784227 -632.865339 -789.419621 -957.000762 -1137.693286 -1325.257558 -1508.750833 -1677.622345 -1825.810539 -1950.942664 -2048.435629 -2112.320519 -2140.992925 -2137.187088 -2105.751956 -2052.183276 -1981.801326 -1899.307215 -1808.585493 -1712.681361 -1613.890681 -1513.905057 -1413.965792 -1314.997607 -1217.709808 -1122.664832 -1030.320882 -941.058200 -855.200957 -773.055211 -695.012893 -621.858188 -555.479946 -499.727538 -459.032900 -434.512026 -424.001092 16942.840786 16549.079882 15563.472764 14205.056608 13236.306216 12739.906098 12280.267067 11386.599088 10015.311922 8828.217381 7612.997703 5873.663811 4198.476710 2712.734172 1327.144916 429.205359 -43.586405 -297.475045 -449.377417 -569.588430 -690.492369 -825.472345 -979.585040 -1151.196785 -1332.001461 -1509.538510 -1671.811409 -1813.072945 -1939.156949 -2042.760394 -2109.936274 -2139.891595 -2136.563770 -2105.342510 -2051.899073 -1981.605739 -1899.178499 -1808.507129 -1712.640145 -1613.876459 -1513.910459 -1413.985713 -1315.028554 -1217.749204 -1122.710163 -1030.368070 -941.097098 -855.201243 -772.921596 -694.449101 -619.986009 -550.541487 -490.174731 -448.784136 -426.148656 -417.305793 16827.133416 16358.387478 14420.949999 12698.249505 11534.004725 11877.398969 12510.749557 11770.711763 8721.977581 8126.423319 7043.803286 4110.147145 3166.024820 1750.178478 -95.129470 -381.131457 -516.140575 -582.669976 -622.523823 -674.553359 -754.834519 -865.592852 -1004.638844 -1166.158688 -1339.438252 -1510.017742 -1662.640599 -1786.820081 -1912.692234 -2035.775598 -2108.530451 -2139.849185 -2136.844967 -2105.650293 -2052.153255 -1981.792496 -1899.304616 -1808.584721 -1712.681125 -1613.890599 -1513.905003 -1413.965684 -1314.997275 -1217.708729 -1122.661310 -1030.309377 -941.020621 -855.078223 -772.654481 -693.702881 -617.614336 -540.901378 -467.915997 -429.002343 -411.762378 -406.093126 -423.326088 -405.325643 -398.031684 -378.925698 -372.430995 -368.818472 -333.754244 -332.193264 -330.757986 -295.606335 -295.182621 -294.681354 -261.605380 -261.514116 -261.321610 -231.039467 -231.044604 -230.952338 -203.536921 -203.568922 -203.510175 -178.837263 -178.875082 -178.829053 -156.715489 -156.752774 -156.712970 -136.961647 -136.996545 -136.960874 -119.375830 -119.407880 -119.375593 -103.767555 -103.796733 -103.767482 -89.956195 -89.982617 -89.956173 -77.771510 -77.795336 -77.771503 -67.054011 -67.075416 -67.054009 -57.655130 -57.674293 -57.655129 -49.437198 -49.454294 -49.437198 -42.273275 -42.288477 -42.273275 -36.046860 -36.060331 -36.046860 -30.651506 -30.663403 -30.651506 -25.990370 -26.000841 -25.990370 -21.975714 -21.984901 -21.975714 -18.528375 -18.536407 -18.528375 -15.577211 -15.584210 -15.577211 -13.058545 -13.064623 -13.058545 -10.915602 -10.920864 -10.915602 -9.097967 -9.102506 -9.097967 -7.561041 -7.564943 -7.561041 -6.265526 -6.268869 -6.265526 -5.176932 -5.179788 -5.176932 -4.265109 -4.267539 -4.265109 -3.503800 -3.505862 -3.503800 -2.870237 -2.871981 -2.870237 -2.344752 -2.346223 -2.344752 -1.910433 -1.911670 -1.910433 -1.552799 -1.553836 -1.552799 -1.259509 -1.260378 -1.259509 -1.020105 -1.020832 -1.020105 -0.825776 -0.826384 -0.825776 -0.669153 -0.669662 -0.669153 -0.544128 -0.544556 -0.544128 -0.445703 -0.446066 -0.445703 -0.369853 -0.370165 -0.369853 -0.313419 -0.313693 -0.313419 -0.274022 -0.274269 -0.274022 -0.249990 -0.250221 -0.249990 -0.240313 -0.240538 -0.240313 -0.244610 -0.244839 -0.244610 -0.263120 -0.263362 -0.263120 -0.296703 -0.296969 -0.296703 -0.346870 -0.347172 -0.346870 -0.415821 -0.416171 -0.415821 -0.506505 -0.506915 -0.506505 -0.622696 -0.623183 -0.622696 -0.769098 -0.769677 -0.769098 -0.951451 -0.952142 -0.951451 -1.176679 -1.177503 -1.176679 -1.453039 -1.454021 -1.453039 -1.790305 -1.791473 -1.790305 -2.199967 -2.201352 -2.199967 -2.695456 -2.697093 -2.695456 -3.292385 -3.294315 -3.292385 -4.008821 -4.011088 -4.008821 -4.865569 -4.868222 -4.865569 -5.886480 -5.889574 -5.886480 -7.098780 -7.102375 -7.098780 -8.533409 -8.537571 -8.533409 -10.225374 -10.230176 -10.225374 -12.214115 -12.219634 -12.214115 -14.543870 -14.550190 -14.543870 -17.264039 -17.271251 -17.264039 -20.429540 -20.437739 -20.429540 -24.101147 -24.110434 -24.101147 -28.345798 -28.356278 -28.345798 -33.236874 -33.248655 -33.236874 -38.854418 -38.867613 -38.854418 -45.285303 -45.300024 -45.285303 -52.623313 -52.639675 -52.623313 -60.969141 -60.987257 -60.969141 -70.430275 -70.450252 -70.430275 -81.120757 -81.142697 -81.120757 -93.160800 -93.184799 -93.160800 -106.676251 -106.702391 -106.676251 -121.797866 -121.826216 -121.797866 -138.660396 -138.691008 -138.660396 -157.401465 -157.434367 -157.401464 -178.160222 -178.195417 -178.160218 -201.075765 -201.113227 -201.075752 -226.285333 -226.324995 -226.285292 -253.922269 -253.964004 -253.922133 -284.113769 -284.157339 -284.113327 -316.978508 -317.023391 -316.977073 -352.624311 -352.669164 -352.619647 -391.146492 -391.187404 -391.131337 -432.628774 -432.653559 -432.579544 -477.153022 -477.122396 -476.993109 -524.839025 -524.622613 -524.319562 -575.980145 -575.132034 -574.294095 -631.736896 -628.478534 -626.237737 -692.933410 -680.799110 -675.587578 -724.932533 -705.322987 -696.772405 12989.867381 13106.151531 13742.020356 13416.287018 13092.297647 11480.595634 9600.295855 9266.367643 7277.048621 7253.053009 5525.278040 4440.879436 3946.390647 2871.491545 1776.380383 942.827654 294.215170 -227.412037 -635.271159 -943.839464 -1171.661222 -1338.332180 -1461.211618 -1554.101936 -1627.217187 -1687.618019 -1739.753071 -1786.004561 -1827.211677 -1863.155596 -1892.988396 -1915.589747 -1929.841425 -1934.817897 -1929.899099 -1914.817374 -1889.653820 -1854.800011 -1810.899777 -1758.783204 -1699.401856 -1633.771131 -1562.922867 -1487.869169 -1409.576748 -1328.949764 -1246.817340 -1163.917378 -1080.853814 -997.951194 -914.824346 -827.167326 -748.862645 -715.183791 -700.725438 -695.527338 12794.525560 12748.513518 13067.787669 14591.957312 14108.435198 9774.691117 8206.873476 8816.104499 7953.021564 7557.471634 6196.439351 4791.513366 3705.299535 2656.479487 1731.380308 946.069936 297.013204 -225.620699 -633.939359 -942.734653 -1170.777132 -1337.674570 -1460.753462 -1553.799112 -1627.023868 -1687.493670 -1739.664818 -1785.927684 -1827.129275 -1863.057767 -1892.871070 -1915.453332 -1929.689420 -1934.655599 -1929.732516 -1914.652388 -1889.495624 -1854.652786 -1810.766578 -1758.665989 -1699.301624 -1633.688115 -1562.856783 -1487.819564 -1409.543722 -1328.935902 -1246.833734 -1164.003096 -1081.139931 -998.881361 -917.865654 -839.322093 -770.906153 -730.763526 -711.175518 -703.822037 12642.147633 12482.568920 12223.527012 12371.767562 12127.319099 10916.720628 9897.586942 8990.234392 8011.251695 7068.295807 5928.266710 4754.792185 3664.731876 2645.134452 1728.922511 945.317442 295.959894 -227.464410 -635.816465 -944.217418 -1171.832490 -1338.394737 -1461.231724 -1554.107907 -1627.218871 -1687.618475 -1739.753190 -1786.004591 -1827.211684 -1863.155598 -1892.988397 -1915.589747 -1929.841425 -1934.817897 -1929.899099 -1914.817374 -1889.653820 -1854.800012 -1810.899781 -1758.783217 -1699.401899 -1633.771271 -1562.923322 -1487.870651 -1409.581573 -1328.965480 -1246.868530 -1164.084118 -1081.396788 -999.722407 -920.533920 -847.051191 -785.534334 -743.274425 -719.688043 -710.153840 16949.785100 16036.666777 13633.613339 13172.431659 11100.010791 11505.668172 12954.451369 12661.417822 8336.590659 8110.098330 6601.530325 2219.704476 1538.706516 113.228525 -1967.401460 -696.915957 -656.926020 -662.814680 -670.234272 -703.176760 -772.228751 -876.319185 -1011.266241 -1170.130222 -1341.507068 -1510.282841 -1659.453015 -1773.111421 17465.556645 15201.650792 12451.130319 18425.405360 15050.912159 15185.814166 12932.835945 13594.909197 11745.971227 18189.050595 16742.462154 15298.500993 16369.194830 17334.340815 14933.555824 20727.561635 8066.672954 13900.673183 14865.536214 13482.642672 18067.268325 16392.590210 14016.707635 15312.412390 10671.074753 16048.536813 4701.940048 5959.971285 17993.382094 15891.701846 12410.986129 11955.015991 10340.670525 19762.629127 15562.287974 15786.002873 12164.944678 12319.364721 11059.735249 18209.541814 13123.255703 14050.185986 11253.678031 15531.413154 15223.252637 13724.131143 14709.863584 8727.271000 10655.262016 12579.453169 15292.362733 14891.759009 13622.792168 14937.325895 11274.781181 15023.966063 18414.853374 18989.388527 18120.786532 11812.552046 15768.317303 13026.923716 15541.753174 13829.832170 17498.675604 12661.103571 1845.724401 10199.169652 11797.404914 11408.151083 9992.913360 17763.941250 12008.557512 13681.641175 15063.541982 10177.668174 17307.282168 9040.023281 8507.901133 8994.827931 19472.344949 8759.199658 12506.311942 9517.755773 18325.417023 18099.271926 16979.574353 12275.891049 8877.238811 14456.940216 10471.483326 6133.883896 15246.239712 6739.663020 10801.791322 14181.928419 11116.328969 15606.822166 5320.806628 9173.043052 10449.398953 10309.409722 14164.028183 13260.750442 724.502041 12156.013769 11238.979004 5172.960507 1582.111788 7304.336157 1519.332188 8535.721306 18196.200620 16083.416533 15932.806061 14547.255078 17238.422486 12954.023470 19986.575710 14631.579508 11110.687658 9571.997030 9382.650510 11285.015691 11603.100212 9068.917230 7852.234233 17310.909964 11149.655920 9213.952966 13985.143755 13438.646442 7808.283716 16064.045557 7390.744468 9084.380823 9951.972488 9532.240368 7152.727490 4317.798933 18493.300067 17499.128216 16216.335174 10947.536146 11996.424605 13565.884452 8456.283747 10849.437347 13016.202595 4526.769612 9525.221806 16126.783361 14861.859758 14526.744186 13370.483971 6623.520728 13461.263210 16043.250210 9276.361685 9644.394482 3810.686094 12911.098588 8099.531383 14409.578152 6999.295449 9659.408066 9476.197393 6263.104579 18758.205196 18318.772502 14233.124708 14717.450117 15152.199642 14144.158027 16911.509793 14497.043090 13053.732044 16999.442451 16557.675728 12602.927362 8740.226786 3908.387363 12749.804000 13001.398727 11046.430603 10232.701694 7562.612834 11606.339328 13492.502020 11244.436524 5758.081502 5350.129509 9007.693206 4375.263442 2582.541070 10049.921786 18792.235379 17941.352150 16363.162784 15955.222587 15539.090101 16794.516600 14979.967256 17989.246062 9180.223517 3678.760328 13313.090720 12218.412398 9980.157403 12437.337693 7366.243423 6970.625903 9500.804772 4561.938574 9769.745615 2005.769665 9181.781962 10088.141592 1780.681270 7810.775786 5205.064744 1811.933380 4554.071298 5813.456736 18887.338706 17941.584211 19081.989068 16690.082956 15174.627823 11150.672462 14791.468516 14116.054023 2448.929954 11810.574515 5784.621430 7345.585953 6222.881707 7405.872157 4056.304596 8291.244734 6818.284184 7174.877772 11601.924889 4796.009777 11940.204085 13934.416330 4819.072695 12783.157785 10569.181680 7769.026395 4850.453959 4071.168733 19056.482261 19272.968672 18796.499405 11907.582552 11719.319042 15641.674151 12537.173055 16331.753801 9244.540785 15604.904863 12706.507959 15716.214883 10258.805187 10423.605495 14017.035144 4224.920361 2082.758039 8684.106383 12677.816101 7412.963524 7497.664123 8285.109517 7126.340779 4636.782042 8204.085204 4743.184684 4674.644537 520.290394 19287.718595 18644.508014 17066.409788 18362.590307 14580.238710 12436.441725 14712.221825 11383.054928 8884.906401 10910.181308 5028.143702 13071.931257 13843.846835 13168.009867 9801.044088 15454.595563 12088.051177 9226.538563 2345.326342 6051.683785 3378.402247 7019.569558 7368.858759 10750.267063 5144.001969 7747.111793 5902.929240 5498.375559 19274.675507 19425.733510 16297.862428 13939.700543 14485.259024 13752.651607 13799.933192 4603.783542 16433.639656 14617.954725 12723.658662 5966.258891 10023.127973 5923.859423 11590.074167 13363.730705 7263.838893 1879.815612 11444.819949 10613.013113 11405.383083 7360.046965 11746.639800 9653.427522 11352.500754 14582.129620 5266.163578 11524.919351 18875.907589 18376.658335 14257.892208 14262.768474 13559.569148 9944.889784 14826.170280 13097.300284 3985.530592 17488.435447 17520.239927 3462.644694 7007.727271 5716.765731 3577.239122 4666.567474 4419.080817 2627.003626 12973.123231 7762.434007 10893.917932 2898.066354 14062.918246 6108.520049 8347.472789 9292.774417 3328.889199 3336.812527 18542.275160 17396.579671 13530.977815 9814.207362 17218.502504 13624.632199 11974.473864 16537.779888 6182.868904 16458.048986 13306.058672 3565.611079 7857.038492 3424.673050 4648.470395 5421.641035 5798.917388 5371.912986 1282.654135 5694.178015 4944.138791 2358.937176 2642.749083 4807.976921 2190.726265 5282.814506 3233.688703 4246.243115 18275.009048 19132.318175 18853.800101 18129.711504 16914.981006 17083.025441 12253.562835 15834.978331 13705.607540 11510.325263 13295.723211 8343.241132 3235.643474 17942.454565 21556.349958 25805.656034 15731.845278 19664.226301 16041.557593 15146.248993 13111.563976 13810.772926 10041.348794 5872.665769 4586.243391 9728.144801 17949.352301 18274.181184 21204.223098 13128.676528 15533.366057 15001.372296 13291.653471 11944.097423 3737.969947 6275.078496 8134.489884 2851.259498 2665.854449 18544.160524 17309.949024 18413.481764 13212.707986 15408.177653 7791.069373 14830.862416 10732.278286 10266.997842 6973.777048 9254.393284 14662.117716 2730.456054 19091.409244 19240.103052 19389.499606 18153.901959 8739.314059 10052.813615 10631.269464 15513.706348 13366.915755 10842.920182 4106.254541 3739.884606 5031.267831 19152.782547 19674.815037 20032.486600 18033.429626 15256.920179 15435.378948 12325.271240 13621.389296 9216.339303 4765.838407 10057.123021 5255.691223 3094.269518 19070.085163 18955.474303 14893.572749 19228.639408 20277.954410 14545.040153 12355.460867 8992.475949 5900.636240 13290.038504 4038.957202 10039.619714 2769.832669 19098.872833 19753.346806 19232.571763 20224.594365 18505.420802 16553.462482 10021.414093 3521.090312 15384.930017 5614.669649 5932.968177 2213.374313 3306.754717 19233.099465 18311.924519 16934.741419 17172.009623 20812.460291 17532.533770 9187.706637 10909.825546 14347.788246 6643.871330 9286.043512 4178.915825 4259.123037 19285.059989 18138.424363 14958.027045 10721.505872 18148.981660 14538.312474 11872.848027 10697.687899 8059.801858 6192.701155 11155.547983 3841.850847 3562.871354 19212.371427 20053.284459 19600.873471 15550.912951 16842.884405 21379.053213 17703.200196 3282.340738 2159.563076 8530.033431 14284.984873 12974.225659 3980.705750 18817.772028 18459.810871 22316.606393 16222.594260 13119.668736 17120.785200 9799.360795 13928.917457 9556.300767 14460.425179 8463.523878 10307.233778 2764.882507 18665.142659 16791.009446 14133.449618 18230.133740 15891.378031 18025.493451 14195.050677 14784.663944 10432.498227 6212.715525 16957.691218 4688.650180 4423.148731 18851.199094 18266.451231 16999.204275 14679.462341 10149.789669 14074.532213 8439.199710 6045.086907 11691.437963 14208.469204 7466.948912 4979.735834 3898.638799 19217.130357 19246.230324 19805.016700 11494.653915 11445.764819 15013.155141 8877.476858 15986.575129 5676.489405 8349.449273 6338.974025 11168.424371 2566.825052 19689.835199 19089.603216 17682.772951 16147.616379 11661.569597 17296.855123 14370.589293 13696.714476 14699.865232 9964.659781 8173.016597 9620.423101 260.100839 20162.944006 19821.752116 18614.103067 14288.956842 11573.401271 12221.627382 1992.750004 16976.391778 6196.056200 17692.842624 5420.448277 3837.453539 4546.173433 20418.966773 19924.183757 18577.673245 18761.263425 14819.162719 14826.792161 8744.034127 21378.512055 10112.752895 14598.640431 11014.902348 8066.402278 9514.254740 20668.015939 19603.962360 17571.275288 17194.048844 14459.178764 14416.126926 14542.701265 9290.400861 10911.261356 9528.327579 7598.055811 9669.267938 4418.743193 20791.981725 20492.970713 18248.548163 17485.723990 18770.620129 10767.182126 10453.804304 13671.796240 6294.094089 16659.321400 7306.456751 764.953353 7224.742200 20548.170621 19888.174048 18538.445252 20523.967696 20131.302949 8672.791781 11669.202035 10557.988822 11847.391536 4768.432964 6726.148644 5633.325200 2697.849246 20129.540050 20364.176890 21295.570474 21465.243867 19933.122304 21217.712089 13100.391145 17540.756204 10250.089413 8791.984891 7817.598985 5354.987408 8730.876478 20025.061922 19750.556440 19821.409599 19114.745256 17007.633484 15354.682679 18080.576696 14849.999596 12121.437806 13031.147445 4573.031078 5533.227938 5097.953236 20254.599630 19762.631362 18035.868324 15222.685153 20669.409999 16665.842823 14200.303550 13214.189785 14380.082886 17225.905457 11060.650177 5548.366233 9371.521382 20474.899841 21525.096481 20502.654412 17760.831811 18239.775358 17145.337187 14122.490612 15767.569371 12786.868547 7895.286298 4411.080811 8761.963365 3752.610769 20444.357546 21944.685670 19690.707137 20082.523657 16153.564693 5048.218651 17020.205391 15081.286511 13186.882438 3799.502851 8508.232585 5669.234229 9622.947773 20296.598190 20019.734601 16926.753049 9927.566302 15682.190583 15571.593737 9293.909068 11561.819761 8905.671606 5851.883459 6032.164842 6530.976191 7692.163001 20366.794409 18553.041815 16248.135377 14931.757603 10778.501829 8063.846689 10609.256738 9940.404364 11016.418281 8385.867884 4695.158566 8081.125782 3661.109037 20671.534167 20426.856670 21791.787191 17039.975100 16339.476609 14943.308754 9627.976284 16858.424058 9016.917785 7771.441788 9064.428854 8445.683686 12344.553451 20802.577895 20341.634702 21131.479894 18165.837873 18515.867576 16298.490371 15705.106237 17951.330726 11523.785353 10254.267238 10478.951458 4730.250118 6436.514317 20854.138638 20511.773337 18465.221738 17763.814210 12998.696842 16934.932608 12839.432677 13296.442714 8103.567139 4157.999985 7642.850965 8493.970717 6287.001193 20578.662824 20564.040799 19956.200142 19723.330539 18077.202685 10782.196935 20311.259308 10146.402463 6313.842463 12384.652175 8456.111522 8195.843899 4057.925505 20123.650191 20028.226171 21650.959093 15246.947776 16372.762146 10616.510897 6340.224550 6212.966403 4866.296079 5142.306493 8019.165634 9890.765462 8399.471682 19920.664803 20086.860779 22945.475687 20623.808279 18258.837848 13875.636130 13247.646362 14457.005994 13757.912621 10172.888643 7396.909831 8711.446226 7802.457920 19994.062943 20829.594353 22790.004001 14588.683408 16948.569444 13274.173695 12737.545032 15096.454319 7291.188381 6954.742448 5594.957642 5964.739992 6591.355841 19617.046905 21839.394806 21140.035279 17446.862784 11884.906714 18613.562341 18442.005749 7932.733338 12596.875834 6573.176758 8688.110024 6400.408268 5960.681161 18934.499761 19636.520876 18765.957948 19442.903149 15155.487586 15203.821412 8930.350189 8094.448874 7930.105919 12265.394092 8215.164054 2393.049814 3149.624381 18742.881350 18224.029893 18464.950582 13303.665958 15824.772742 10285.065620 15189.068666 9607.361126 6616.618482 10762.708698 8642.281731 7295.690302 5520.003687 18946.707388 17350.826888 17552.602494 19893.972396 17434.586703 14928.277638 11589.911643 16153.844304 11837.610459 7058.656776 7567.276960 8617.285277 4607.271549 19018.817792 19167.258309 19826.825252 21462.653538 15623.243705 15499.345987 14261.856067 11297.098643 6928.962857 6841.095670 6546.190675 10143.204276 5620.695345 18682.405382 18083.343228 17433.593941 15615.266005 15360.714493 15713.384624 9750.892113 10784.748265 7128.759913 10718.880947 10085.523785 11688.752080 2207.230228 18249.697959 18534.791490 19055.556362 21176.561215 17975.359099 14462.696016 11500.216683 7242.268844 13999.122661 7383.280681 5813.089139 6380.814078 8229.124489 18104.114900 21634.201638 24151.762436 20048.702763 19012.970072 20790.765252 11318.476911 13095.470896 12166.388161 7068.432229 6099.512637 13446.118497 5501.416924 18113.348326 18963.560132 20423.688124 18842.837795 12020.831315 8730.442430 17525.212189 15059.683175 10322.604800 8201.254093 8260.460144 5660.600612 4269.850841 18264.448227 17612.490859 19559.257560 19420.706354 18005.076479 19879.942457 12207.318656 13519.349554 10376.351462 3712.280523 7571.756213 8980.120041 4128.475775 18432.470392 17929.603119 19392.535192 9144.560787 15357.227721 15588.939224 8833.154436 7386.539697 4764.047197 9544.094301 11765.929899 8209.523687 5235.548144 18592.509387 18126.786924 19091.585162 13189.869075 15120.836047 13528.559134 14994.455613 9871.409457 6098.836838 6341.321712 8158.384146 3964.892392 6918.413494 18608.906881 18721.790748 17715.576619 16081.176581 11745.110178 15026.876669 11893.331375 8773.230423 7149.539007 10256.504992 7241.765000 13409.676939 5645.283304 18405.618899 17246.229437 15147.073430 18451.127456 12984.123244 15657.217662 9095.603300 8836.739962 6443.055190 10863.820639 4784.714201 4634.128614 5571.797944 18227.282608 18094.973369 17819.032258 17778.029930 15099.041328 12085.257318 8190.851261 11980.627697 12481.302035 10390.288321 10951.881035 4089.264107 3619.016700 17908.483329 18794.239795 20987.702508 21162.581457 11589.649269 17497.064303 7079.082395 11066.735030 11018.833801 6634.088258 13967.165365 4869.937444 3191.883699 17650.627363 17669.472092 19074.058353 19879.953804 16420.546652 10760.935453 12793.481384 8803.565629 9016.167518 6908.941990 4180.244332 8830.195103 3486.409144 17652.187846 17927.987003 19564.806115 16574.826436 15692.650163 7273.759649 12172.891020 9381.094992 12492.321561 5509.627340 9733.517573 6696.216601 3740.448143 17649.557034 18114.824508 17831.468398 17317.854107 13221.449422 14332.870456 8365.309105 9662.214516 11698.441470 8658.675777 10335.449679 10901.334200 1829.803380 17547.450838 18769.481641 19199.538503 16296.108002 17735.818635 11559.153107 13310.459550 10602.205870 9073.798638 9965.125765 5171.597068 9831.131028 4788.548209 17059.140699 17618.836260 18545.556021 17704.038274 14050.328667 15643.499030 14395.666966 11497.296525 11027.196513 8105.223678 10798.286674 4363.642353 6879.147479 16616.520317 16833.381114 17469.248540 15697.432694 9030.537033 9988.275111 9550.118444 9386.602746 9779.522502 6075.872378 10874.064336 7355.933531 7092.094347 16547.664139 17453.314845 18973.818008 18889.241665 9915.317643 17331.860838 17406.268518 16429.830361 12463.281796 12137.934519 9886.110859 4437.051407 4271.945831 16557.942494 17278.755409 17786.244305 14500.498268 13189.447212 10962.233587 12300.529611 12875.359574 8644.774110 13682.273983 6984.493170 3962.377292 5748.110216 16380.725914 16245.706964 15898.368830 16652.361092 18003.817837 14577.016360 12429.247985 10187.997413 10295.802087 11282.360651 6437.111678 7195.914609 6624.018020 16163.780154 15726.500074 14520.380824 18624.025440 9393.223242 12511.449327 13184.232639 6438.836841 7875.306595 6383.420585 6465.169264 9020.083057 3611.373225 15970.980063 16151.739265 16267.896426 10927.501184 14025.666615 14932.381402 15065.246800 2914.132267 13319.815501 9271.623180 5560.639532 5223.077542 1836.625238 15735.775448 15637.305033 15599.566202 13653.378219 10493.642639 10362.927972 14692.181287 11475.273417 11483.223824 12628.808897 5410.250522 5519.180631 7148.190645 15568.624332 15267.414677 15012.922837 15021.716312 10949.437515 13177.862000 14748.588899 13796.139023 4276.740446 4938.288558 10855.100313 5998.719696 2483.887125 15492.553880 14785.866884 14656.535390 18598.618439 13719.109301 10122.072777 9115.108922 12318.518784 8325.161323 11384.737119 6626.789110 6868.567489 4241.561133 15506.647435 14826.034465 14335.382016 16259.192830 14584.626426 10170.896094 12864.537542 5953.536257 9961.507791 7413.381594 7544.373348 4496.807809 4348.493284 15584.502112 15170.935708 14746.791914 12105.573169 11852.231177 16004.784137 14749.562133 15675.882761 6845.549768 12389.424903 11858.350966 5039.586515 4423.352731 15630.461028 15273.702381 13889.657195 12797.761238 16005.216181 12514.715157 14283.126225 9260.489265 3259.016313 9139.919904 7163.113074 7882.509079 3218.173646 15646.561035 15732.481581 15043.232916 15064.448733 8348.153023 11321.446500 14923.617009 7903.394714 10790.121635 10638.602715 8068.553645 4948.368205 4684.868651 15560.181554 15912.556921 16189.686060 15602.507951 15571.499884 13235.623866 12495.161672 9853.966245 11715.303485 9609.998876 8228.186024 7638.225653 5138.428600 15322.952397 15964.583198 17766.801661 10813.808865 11410.858429 9924.850355 12347.682343 13624.695617 12023.695010 10928.703252 5506.369662 10588.929783 6898.889483 15153.509685 17092.260139 20292.455600 15623.006310 10815.683708 10101.075006 12530.938663 11488.186848 15542.902442 11748.553425 4983.765147 4975.236422 4189.282294 15119.687011 15710.863965 14063.764021 12122.931912 12758.408482 11757.347361 15370.679429 10921.075191 11097.227393 12367.812508 10891.461820 14626.102615 4733.869813 14821.745390 14392.516101 12603.382853 17614.286660 16324.992787 12899.423335 14816.037425 9109.609751 9986.651284 8635.763401 7780.357283 3192.710577 5574.154211 14218.039718 13890.814800 16760.124370 13081.616515 10292.381282 8273.757810 12437.845412 10077.945103 12270.229834 5229.644920 4100.584333 6808.062794 6068.443302 14160.310099 13226.110301 15971.685342 14158.723246 10014.899761 15577.926949 14963.387758 13124.101279 8699.972488 13710.528939 13361.037752 4050.670571 2710.127898 14595.352763 14055.138500 13433.198602 14544.970073 13659.166006 12770.363853 17253.611654 13249.263409 10513.687640 14053.043996 12765.823831 5126.116447 5630.235690 14741.280503 16145.154807 15346.526607 17994.091752 17176.530406 9454.003051 10307.350760 9670.007232 7467.696958 8580.712278 8027.198708 14737.933749 3449.073470 14493.936614 16570.234831 16383.968951 15018.212767 11855.321152 16958.500150 13424.312670 10678.553048 12313.932248 5503.485593 7464.686418 6474.180804 5634.075921 14394.417828 14719.869544 13830.364187 8796.576146 13037.552415 14027.505179 17472.906283 6283.164675 13773.436370 12150.595997 13482.840974 3156.104000 3332.830244 14576.815590 14977.094946 13293.564576 13433.080687 14105.807744 10308.350206 9846.024273 10809.562136 8032.652257 11596.199350 3918.709788 5442.149113 5914.018060 14434.896758 15328.770066 14863.816560 8824.222388 15620.872114 11133.148550 12121.848098 10702.635429 13139.105289 4464.865086 12139.293784 10698.136150 12238.747575 14193.420763 14530.435222 13590.924614 11702.704047 12077.557244 18431.453213 15172.534209 12435.815715 13466.189089 13295.553973 12361.857835 11615.047799 4460.869929 13883.703934 14005.069692 13793.989601 12688.839394 14494.545204 15690.683202 13389.730755 15388.586146 10881.736582 16235.905349 16078.445201 15270.518490 13491.498976 13315.250002 13572.295811 14256.339511 16744.359899 14904.516289 15651.624311 16070.998939 13479.221451 15684.963906 15513.178200 12355.071012 11546.387117 11584.560245 12989.867381 13106.151531 13742.020356 12743.635318 10611.357991 11373.357016 17160.484095 15428.679002 14284.191063 14644.391054 16197.892821 16392.924424 14524.252410
</DataArray>
<DataArray type="Float64" Name="Velocity" NumberOfComponents="3" format="ascii">