<VTKFile type="PolyData">
<PolyData>
<Piece NumberOfPoints="2177" NumberOfVerts="2177" NumberOfLines="0" NumberOfStrips="0" NumberOfPolys="0">
<PointData>
<DataArray type="Float64" Name="Pressure" format="ascii">
 15445.617154 15546.961286 15599.098246 15427.354672 14936.851197 14156.049530 13164.103129 12020.253847 10829.166457 9603.673054 8361.791266 7176.553481 6064.382395 4941.684258 3757.133644 2425.726521 1057.352992 -146.154037 -1110.075810 -1770.320002 -2159.626429 -2394.807709 -2551.783943 -2657.674616 -2722.925866 -2754.066874 -2755.966320 -2731.924881 -2684.475292 -2617.714224 -2537.329834 -2447.899141 -2352.307069 -2252.339442 -2149.147214 -2043.528506 -1936.104075 -1827.429692 -1718.063083 -1608.595617 -1499.657420 -1391.904276 -1285.993998 -1182.558885 -1082.179452 -985.363311 -892.532560 -804.024879 -720.122615 -641.153924 -567.794969 -501.767279 -446.668980 -406.631824 -382.565074 -372.248264 15996.702007 16220.642839 16517.840872 16575.239609 16201.588000 15505.376793 14616.314859 13387.252306 12156.077970 10981.661151 9788.831372 8759.240506 8064.743389 7137.034732 6238.761957 4859.145752 2824.135489 1172.322596 -234.287203 -1461.720715 -2108.479485 -2387.077951 -2549.146169 -2655.949222 -2721.872286 -2754.038020 -2757.720554 -2736.081464 -2688.714154 -2619.690265 -2538.011498 -2448.078882 -2352.329864 -2252.320098 -2149.121123 -2043.506078 -1936.088570 -1827.422574 -1718.065386 -1608.608132 -1499.680594 -1391.938100 -1286.037932 -1182.611775 -1082.239219 -985.425780 -892.587402 -804.042173 -720.009658 -640.623684 -565.997428 -497.007351 -437.477695 -396.851316 -374.664598 -365.972590 16765.384679 17157.701839 18356.477853 18789.444717 18736.920217 18108.780922 17451.478666 15980.836786 13791.532471 12904.819905 12336.322747 10093.451126 11705.250715 10905.198712 9516.119732 9801.176910 6564.200671 2919.554051 2265.966599 -662.305807 -1991.146705 -2374.186393 -2546.175820 -2654.222712 -2720.907030 -2754.317012 -2760.663883 -2744.989947 -2699.754643 -2623.246578 -2539.059675 -2448.450426 -2352.482045 -2252.394938 -2149.164794 -2043.534068 -1936.105833 -1827.430246 -1718.063256 -1608.595663 -1499.657408 -1391.904185 -1285.993683 -1182.557850 -1082.176066 -985.352237 -892.496350 -803.906487 -719.735660 -639.887657 -563.689235 -487.642151 -415.968192 -377.949022 -361.091110 -355.474285 -372.736610 -355.197486 -348.021838 -330.623987 -324.315261 -320.763882 -288.359684 -286.842830 -285.439595 -253.118259 -252.707986 -252.217746 -222.045475 -221.957894 -221.769509 -194.390210 -194.395657 -194.305571 -169.743945 -169.774894 -169.717992 -147.815591 -147.851709 -147.807634 -128.356576 -128.391803 -128.354136 -111.139789 -111.172421 -111.139041 -95.953624 -95.983291 -95.953395 -82.600387 -82.627128 -82.600317 -70.895854 -70.919832 -70.895833 -60.669059 -60.690470 -60.669052 -51.762038 -51.781086 -51.762036 -44.029492 -44.046376 -44.029492 -37.338360 -37.353271 -37.338360 -31.567315 -31.580437 -31.567315 -26.606213 -26.617718 -26.606213 -22.355492 -22.365542 -22.355492 -18.725541 -18.734287 -18.725541 -15.636056 -15.643640 -15.636056 -13.015383 -13.021935 -13.015383 -10.799862 -10.805501 -10.799862 -8.933178 -8.938014 -8.933178 -7.365729 -7.369860 -7.365729 -6.054012 -6.057529 -6.054012 -4.960040 -4.963022 -4.960040 -4.050778 -4.053298 -4.050778 -3.297628 -3.299749 -3.297628 -2.675931 -2.677709 -2.675931 -2.164520 -2.166006 -2.164520 -1.745302 -1.746539 -1.745302 -1.402878 -1.403905 -1.402878 -1.124201 -1.125050 -1.124201 -0.898265 -0.898966 -0.898265 -0.715834 -0.716410 -0.715834 -0.569191 -0.569664 -0.569191 -0.451934 -0.452322 -0.451934 -0.358782 -0.359100 -0.358782 -0.285418 -0.285680 -0.285418 -0.228352 -0.228569 -0.228352 -0.184809 -0.184991 -0.184809 -0.152631 -0.152787 -0.152631 -0.130207 -0.130345 -0.130207 -0.116412 -0.116539 -0.116412 -0.110568 -0.110692 -0.110568 -0.112423 -0.112549 -0.112423 -0.122137 -0.122273 -0.122137 -0.140291 -0.140443 -0.140291 -0.167910 -0.168086 -0.167910 -0.206498 -0.206707 -0.206498 -0.258091 -0.258343 -0.258091 -0.325331 -0.325636 -0.325331 -0.411547 -0.411918 -0.411547 -0.520867 -0.521320 -0.520867 -0.658339 -0.658891 -0.658339 -0.830082 -0.830753 -0.830082 -1.043452 -1.044264 -1.043452 -1.307232 -1.308212 -1.307232 -1.631856 -1.633035 -1.631856 -2.029644 -2.031057 -2.029644 -2.515075 -2.516763 -2.515075 -3.105082 -3.107087 -3.105082 -3.819369 -3.821744 -3.819369 -4.680765 -4.683566 -4.680765 -5.715594 -5.718884 -5.715594 -6.954069 -6.957918 -6.954069 -8.430708 -8.435194 -8.430708 -10.184768 -10.189974 -10.184768 -12.260684 -12.266702 -12.260684 -14.708521 -14.715449 -14.708521 -17.584417 -17.592362 -17.584417 -20.951022 -20.960097 -20.951022 -24.877912 -24.888236 -24.877912 -29.441972 -29.453670 -29.441972 -34.727733 -34.740934 -34.727733 -40.827650 -40.842488 -40.827650 -47.842305 -47.858915 -47.842305 -55.880511 -55.899029 -55.880511 -65.059312 -65.079871 -65.059312 -75.503838 -75.526567 -75.503838 -87.347010 -87.372032 -87.347010 -100.729073 -100.756498 -100.729073 -115.796914 -115.826840 -115.796914 -132.703166 -132.735673 -132.703164 -151.605057 -151.640201 -151.605053 -172.662994 -172.700801 -172.662980 -196.038853 -196.079312 -196.038809 -221.893976 -221.937014 -221.893833 -250.386868 -250.432292 -250.386404 -281.670660 -281.717978 -281.669149 -315.890518 -315.938371 -315.885610 -353.181638 -353.225957 -353.165688 -393.669832 -393.697824 -393.618004 -437.481295 -437.451626 -437.312904 -484.783932 -484.559379 -484.236800 -535.929823 -535.041175 -534.153545 -592.178254 -588.760353 -586.383261 -654.541167 -641.800706 -636.260390 -687.465057 -666.792485 -657.736986 13046.410800 12987.035878 13382.457590 12286.704562 10691.373513 9969.273485 10063.776817 7807.794897 5934.361809 6609.511901 4440.448577 4219.332943 1550.730717 -219.343855 -1083.849298 -1337.480355 -1473.341111 -1564.708765 -1609.501528 -1608.812918 -1578.397978 -1542.441714 -1522.262787 -1529.943662 -1567.791413 -1630.943186 -1710.693817 -1797.293984 -1881.828053 -1957.212083 -2018.517093 -2062.855039 -2089.035721 -2097.148121 -2088.160887 -2063.587530 -2025.228326 -1974.982982 -1914.721694 -1846.202215 -1771.022673 -1690.601881 -1606.179976 -1518.832731 -1429.493263 -1338.975346 -1247.992356 -1157.162665 -1066.978333 -977.658697 -888.699728 -795.490361 -712.691322 -677.193480 -661.934978 -656.395827 13094.408104 12962.859434 12339.697996 11513.582753 12002.103048 12235.139263 10962.761467 8366.497699 6376.905982 6211.590525 4587.178000 3244.951909 1521.638239 64.184125 -789.535413 -1202.076730 -1421.901785 -1546.458641 -1603.397773 -1606.899033 -1577.998992 -1542.666396 -1522.735963 -1530.453881 -1568.213176 -1631.215089 -1710.801677 -1797.253925 -1881.671799 -1956.975971 -2018.235056 -2062.555013 -2088.738565 -2096.868047 -2087.906603 -2063.363533 -2025.036070 -1974.821828 -1914.589663 -1846.096571 -1770.940381 -1690.539964 -1606.135795 -1518.804288 -1429.479822 -1338.979306 -1248.025390 -1157.266003 -1067.289811 -978.644226 -891.899451 -808.266093 -735.746803 -693.313570 -672.611034 -664.806134 13159.962848 13018.416908 12758.690076 12315.790790 11951.332613 11340.892434 10207.672815 8898.242195 7426.218151 6037.436938 4606.996239 3135.820782 1648.042743 340.954713 -561.454033 -1086.731015 -1375.412443 -1530.679896 -1599.203674 -1606.099219 -1577.758987 -1542.291671 -1522.217001 -1529.922766 -1567.779971 -1630.936909 -1710.690505 -1797.292291 -1881.827203 -1957.211658 -2018.516881 -2062.854932 -2089.035667 -2097.148093 -2088.160873 -2063.587523 -2025.228323 -1974.982981 -1914.721697 -1846.202228 -1771.022718 -1690.602026 -1606.180452 -1518.834281 -1429.498314 -1338.991804 -1248.045984 -1157.337418 -1067.547620 -979.516479 -894.690255 -816.368842 -751.050932 -706.290532 -681.332581 -671.231717 17136.882780 17623.411061 19717.998279 20443.855329 20023.022617 19671.724705 20254.079537 18017.083232 15064.247948 14162.602731 15346.973434 11004.946875 14350.849486 14828.196199 9122.119003 15045.524090 12879.990569 1599.688379 8532.780978 2320.329991 -1945.021552 -2371.078459 -2545.967502 -2654.230791 -2721.043628 -2754.746756 -2762.016873 -2750.028570 17774.724195 18377.128769 21426.156210 22967.690626 22178.197228 20082.417783 25053.457535 24324.327378 17846.668151 19346.820274 19594.536148 20494.969231 20832.119229 22323.706579 21064.614890 22306.122538 14211.903315 22677.678686 18846.018849 21719.203828 20113.075620 24238.458980 25174.520371 17841.383015 14784.307126 18873.609887 8063.960235 11388.804990 18229.245193 18067.530506 19446.848917 14179.585678 16249.993601 16929.972037 18824.593979 18845.699553 16517.783786 19174.299390 18901.649391 17957.817218 16973.851007 17483.392010 20460.686564 22372.773181 18318.005883 17502.009708 22881.103639 18578.826990 21318.552044 22234.065487 24399.131415 22833.136106 23032.786897 20269.304129 21180.278150 20971.830263 18771.635719 18899.745392 21686.504789 19781.077852 19105.620556 15229.952361 20992.323752 19241.340728 20719.195811 17815.323707 2620.562752 17142.182200 18243.446935 15409.678435 18751.591352 19279.208767 17648.450981 17920.651548 17098.544247 15575.722326 16968.833588 13427.964718 15617.322625 19503.150131 18762.787358 17600.529771 27029.977847 14431.138118 19463.780073 22127.647647 26120.704122 21915.288604 16962.147557 17825.283960 18979.435417 10860.657573 19041.741594 14265.533720 13869.320475 17508.937741 17254.672449 14918.439026 12128.388260 12458.025681 19313.634344 14947.449377 15848.875598 16671.057524 12226.524222 19077.924134 19266.708065 8641.428185 6993.197514 9420.447096 7336.420591 10719.753048 19896.847208 22740.149223 26567.621934 20326.178832 18568.380330 20210.723003 20138.880994 16765.227205 17846.797341 17306.484316 17060.655776 18652.257703 16286.307040 13769.399403 13223.610566 19719.172639 16909.105814 12044.842500 19838.043682 19722.499190 14846.439738 16263.054239 16599.399061 16220.773843 19115.197482 11235.411407 12753.292510 15250.276846 20029.569031 20601.980857 24833.381241 19322.086693 17330.424395 21165.813430 12879.699149 15781.160456 20235.087869 10542.727661 16992.860370 18137.526123 17688.267816 19751.300520 20031.068873 9312.393751 10345.637581 17526.293954 14684.357951 11306.798450 6063.823824 18198.361227 17602.738861 15882.522802 11793.081004 17176.216264 8950.826383 -2065.291893 20334.007976 21091.417685 24840.851550 18236.778206 18887.259446 19076.287584 20022.870404 17036.642448 19318.436396 19159.216157 19350.574327 20692.755436 11974.699834 10067.132428 19187.803209 19169.862266 13872.426671 18256.206921 10775.829362 14457.291867 17374.843724 13988.336737 10703.915064 9518.453808 15049.811817 13555.415953 9242.096600 12761.920969 20384.397872 20744.313203 23146.172093 18846.763595 21999.313625 20631.819758 18716.786390 20152.024904 16325.948291 9566.773893 12237.552162 16744.270535 15293.158865 16864.016259 11550.437192 7319.732132 14092.192753 8262.245713 10540.480989 8266.851326 12619.693241 12718.053168 8565.775098 10540.782892 12481.595603 6477.956649 12100.910040 5748.082709 20104.382060 19474.771312 19458.684616 20707.343098 17790.707311 13569.579834 19230.414635 16189.469083 9912.739834 16516.355337 7589.003724 8364.773610 11232.186652 9738.558200 9241.999824 6978.388336 8271.432053 11141.800836 17046.436839 7942.158756 15340.520853 13748.912060 8919.078161 13860.194482 19490.533973 12687.706083 11094.543196 16139.255662 20107.788281 19727.968496 20641.066987 19641.458019 18325.526675 18404.556566 16085.657024 19956.309265 14551.355530 15801.165685 14590.588433 19079.998166 9408.123707 12620.938585 17010.976241 8406.023914 8994.482687 8818.301623 18935.705828 10552.695047 11250.450125 11027.508585 9754.320353 8979.311814 12032.956451 9849.744983 7764.918679 10620.161857 19886.556072 18742.771133 20100.328289 18691.325339 18025.825682 20202.512716 16080.400791 16352.569710 8021.582362 16580.046206 6147.914508 14791.541578 16078.748509 15524.491652 9212.707505 14250.330538 13887.241200 9356.902914 7463.730401 5224.912656 5414.783877 4917.322349 12379.176404 13046.789548 7205.024790 14270.913337 11372.433036 5462.214967 19772.831369 20262.701983 20642.393772 12296.395544 17623.980331 17166.991037 19584.959642 9822.816209 18014.560267 17077.056956 11833.879522 8000.664475 8783.571925 7566.274987 12845.289989 14218.263942 11439.675490 6768.752947 13787.532474 13546.879760 13732.889403 15024.874040 9940.958915 9424.853023 12046.556688 17741.547024 5775.332950 12309.592983 20231.655863 22155.923400 23158.300840 16818.537566 19042.173759 12323.995607 17734.310893 18379.985853 6967.040679 13819.340511 18915.057274 6498.118089 8068.263549 7300.584887 7600.045222 5508.592974 5478.777927 2912.362438 11056.417602 10928.587299 17825.922143 5083.564197 15715.265569 9782.846745 10325.534018 16294.113100 8360.186568 5194.240686 20566.197549 20941.214338 21399.803422 14786.714802 19302.101925 17694.723392 16253.640712 17861.147806 5346.413291 15935.880554 13397.528627 9149.943271 11106.411654 4068.111219 3338.193285 5925.479610 2856.752289 4491.063202 5546.187988 8538.824108 4940.965750 3027.626765 9436.068992 3823.450926 8946.603601 -1025.026037 3097.466245 3904.988818 20548.171455 20094.769043 19823.410054 20059.516107 18712.998547 19567.417490 12184.812772 14398.704594 12079.622344 8212.190888 14904.952894 9278.367208 4045.774908 20599.493207 20190.956022 20424.528888 18094.451774 19576.988305 16894.265367 16628.256758 8590.989315 14567.631255 12192.348535 7939.899965 5983.342394 1398.177855 20458.294347 20150.816877 21723.234146 13729.298524 14645.638285 17726.572878 12070.412193 10496.298244 7305.776096 8401.420501 7273.076547 7063.036339 3313.132988 20104.427134 19081.107004 18216.619273 11032.959957 16115.179054 11751.884580 11766.458670 13193.660284 7966.687787 10500.983656 6569.660440 13158.146092 1749.454439 19764.820710 18893.363779 18709.918054 18744.421960 10242.125309 8474.534347 11491.833811 12611.899808 14010.824288 9183.724154 3882.432173 8721.510259 1064.642981 19598.667868 20027.223196 20753.713569 19260.488472 16677.285057 14202.452674 12772.369942 12595.290672 12916.562420 5207.775560 9189.057226 7312.035667 3178.009260 19500.953217 20242.592657 21355.115013 15174.639135 18301.644157 12584.642869 11768.277655 7506.924644 3951.449994 14817.309705 6162.902359 13424.746501 5707.792406 19416.831881 20891.800997 25079.814248 20531.231675 20047.582556 18949.814623 9738.333399 8918.468971 10808.324614 8555.665277 5892.760729 6548.109875 3323.247001 19337.797728 21093.309683 23264.252984 15977.992679 16320.589037 14907.098902 7131.176128 11898.922242 11142.122583 9917.624247 6083.945303 2634.399484 7596.501368 19699.812225 21406.751381 21896.616284 11231.023216 16805.570219 16742.571951 12197.008436 8766.532933 12246.239189 7281.677531 10487.644928 6246.615769 3699.080849 20056.135506 22192.558034 23949.855880 18877.076844 18464.195095 16486.571969 14739.585396 6453.995853 4640.815729 7850.555042 10604.076745 11841.496750 6941.998690 20209.475893 21377.862421 21112.261765 11268.118285 15020.066682 16408.810238 6679.219872 9648.499949 10789.918381 16941.980493 8974.592860 10323.613772 4426.711486 20354.751308 21700.764928 21168.159640 15352.792716 15308.706729 16585.525169 16393.948548 13046.109575 8325.198585 7236.005524 15734.425072 5068.495333 2686.090448 20417.924114 20493.698302 19690.253668 19185.384222 8321.656427 14257.421448 9513.675059 6505.114501 8056.193973 18342.991972 6355.754990 5920.921099 3178.814159 20444.496549 20369.210735 18780.363986 10325.099191 15685.683373 14758.190909 11186.231962 19181.319200 8037.039907 9382.618505 7593.256844 7906.134777 4518.574576 20599.687103 21336.672209 19587.855494 17600.727163 11632.646194 17268.521294 15113.220452 10581.395884 13772.906341 10057.413878 7429.732808 9166.411284 3661.017172 20726.736775 21654.560920 23319.532838 17973.432810 9240.133958 13282.715459 6959.578531 16047.160429 6142.581206 15862.512989 4454.725969 4403.674221 5201.979179 20462.892989 19088.923766 18098.900819 23470.466878 16989.040582 11953.593699 11555.671659 14305.575154 10456.501893 9193.567468 7336.431776 6884.061777 5329.031178 19870.271020 18993.357188 22478.201038 16191.829994 12006.894911 15108.652901 13150.450670 10525.187936 10744.757218 8367.592052 6399.425391 8249.040414 3510.120777 19692.057849 18769.096924 20883.517808 18109.103503 19061.987264 13385.603696 9012.531080 12699.690181 7176.271516 16933.542374 8830.528185 7056.641406 2058.057867 19971.534308 18874.935452 16986.305398 19346.211173 16383.249107 9002.784579 10606.331646 12417.585596 8221.975454 5558.164333 8506.629596 4650.577759 4592.746577 20289.329965 19999.521972 17289.146977 18353.345753 18966.802556 19267.583114 10672.669400 13640.539965 9632.708704 11183.233683 5013.323649 6283.003963 1904.845244 20547.458909 20260.142298 18043.057799 18680.930137 20831.041691 13663.188336 15653.796882 12972.671940 10712.970436 11352.812600 3622.436775 4483.782007 4521.179958 20642.865343 19393.022388 17903.430699 12821.900854 17515.942818 15653.741866 12670.851430 11700.855545 13261.546312 15708.827897 10045.747170 4665.166431 5416.722915 20432.080745 18396.686899 15740.326645 15273.385098 14055.638239 19950.117688 13948.623522 12086.979457 11734.668469 9846.298178 5359.483557 8129.971733 2302.982978 19891.159059 20225.690127 22657.482753 14270.817507 15016.855902 3836.857515 14323.173850 10767.456639 9211.000074 4965.831813 8604.816254 6043.148411 10098.422401 19337.737050 21610.808514 25534.842695 11724.988090 13175.829770 12645.982386 7606.845195 11504.507459 11823.808522 6343.503779 6136.973170 3205.106147 6376.052295 19021.818181 19976.690980 18328.740139 13263.331893 13853.235903 6545.475847 11482.024474 9882.404645 10193.840659 5031.966796 5236.864294 6389.205303 5935.213802 18729.800013 19556.149638 17326.288587 15636.481092 13615.616573 9617.746756 7714.771012 15966.220701 9332.386467 8873.393664 8844.202897 3542.317304 3418.701575 18374.423210 18228.535850 18097.562510 16226.088970 15289.598153 15938.150073 14118.245549 15533.163624 12782.210066 11550.866378 6998.291500 1106.640056 2711.494435 18366.105173 18017.327231 16318.416742 17904.716984 9382.539476 15298.833236 13447.150174 12660.548508 7682.835423 3138.377382 8081.778336 4638.129890 6761.233335 18612.761438 18007.905804 15099.482213 14779.212218 12228.022966 14164.773285 16849.629350 8878.760426 5575.991020 9404.786639 6491.341136 7425.575022 3500.768942 18625.806433 18712.800782 16872.439847 13595.070098 14172.867024 11970.636533 6174.968517 3723.184702 1943.612100 4749.102570 4868.597687 8800.244326 2611.858174 18424.511908 20041.435549 20008.443967 18911.356237 16578.899034 11834.257801 10554.005740 13813.687180 9881.667652 10079.846942 2195.439425 2811.898521 5104.399718 18544.225616 20154.654360 22504.731719 20738.937702 20779.568997 14534.076249 11950.703110 13097.941148 5976.210415 1902.008997 3088.990617 4032.591868 6896.760642 19191.576482 20368.527000 20019.162135 15452.618153 11039.466460 15261.491853 18523.786004 5284.215412 10748.594715 7754.359015 10533.083017 1522.832020 4086.093832 19432.461850 18990.159947 14405.184990 15216.648688 15176.020339 14880.917899 7585.413259 5959.682075 8157.754749 10194.117653 5839.147155 4395.006217 2865.370036 19137.951238 18856.707524 14368.856930 19020.771498 13891.559703 7441.635355 12861.699023 9663.976574 6555.713736 10332.548850 6435.600318 8013.848521 5279.204662 18865.430221 18621.153726 14618.364540 14554.098774 13597.918642 14182.929787 11406.610095 14425.176203 9736.188467 4433.979202 4389.834277 6921.108704 2644.402886 18676.771627 19032.567457 17124.747131 17233.283061 14774.814737 14826.765103 13176.945552 12049.697903 5666.084377 8976.455069 3763.902566 6856.801981 4080.779585 18411.117914 18340.411976 16798.404058 16137.810347 13068.641072 13740.185435 11034.229343 8709.189148 5945.826004 11748.873850 6694.503590 10429.584181 4619.387903 18143.501610 17692.725174 16591.145725 17516.517847 13227.537872 13609.129619 10572.875597 7708.668224 10897.311102 6700.380959 8068.113453 3532.302722 2948.228039 17881.652110 18000.127439 18317.948887 16855.502862 14512.382500 13005.338180 10278.922293 12089.291772 10743.620666 7601.201446 5563.135938 10860.279232 4092.149710 17635.690712 17748.350034 18872.449391 15566.455079 11240.953924 6394.975862 11086.477742 12909.460648 8757.035506 8955.844001 8095.540949 6704.057380 4757.338914 17642.734843 17674.996963 19194.770608 14800.091241 12585.220663 18819.256386 7965.057762 10603.534114 8219.785389 4232.769040 6055.025273 5466.105593 2853.202399 17748.898584 17608.446049 16406.861921 10046.060073 13885.552265 13261.622240 5476.675998 6427.933852 5501.873289 10798.862835 10479.268662 4481.474746 3857.514674 17772.690039 17546.292067 16037.822187 11979.850338 12753.615910 15842.815329 12027.080797 7303.368699 5201.717267 6951.267467 8058.577292 4087.365558 5688.855256 17691.111306 17626.773783 16845.251712 13824.747364 9569.385511 11456.304746 7983.535439 8675.520659 5613.940791 9199.890651 4277.982664 8904.260572 3581.910196 17551.518754 16688.388207 15276.594591 15738.053783 11284.719019 13318.376135 9058.652181 6158.785632 7156.948900 10201.539488 3907.948810 2913.437327 5727.375240 17518.150638 16942.356670 15650.146382 12470.783774 17377.407939 11989.243608 8344.785254 11503.330401 10209.985433 9093.833612 9706.662677 5460.103238 3653.349970 17581.092764 17673.999919 15535.222756 17017.326189 9767.551753 13142.749137 6869.185308 9279.536464 8790.090261 6461.999807 12110.901073 4495.092634 1717.050378 17468.594383 17804.363940 16450.573805 15864.474924 15144.888588 8400.301651 14453.078604 8361.368179 8570.590643 6909.862876 4525.186512 4768.497298 4893.555042 17046.153225 16674.371475 15426.380237 14088.398608 12302.467114 2315.840387 7973.804033 8468.155442 10446.179364 5588.346456 9382.266474 4034.285528 4019.802450 16662.157583 16565.173113 18540.732115 14620.500186 11000.155144 13536.577315 7710.216931 8521.575479 9939.150943 6460.046914 6750.037827 9700.027369 2824.829559 16570.334951 16050.847631 15656.310996 15231.379241 13314.971612 8678.921868 10812.129314 9357.349726 5220.833487 6929.479096 4472.232650 7705.207950 4922.110360 16631.937428 15924.481683 15217.994228 15137.978912 12120.082244 13270.543371 11268.902356 11622.642589 10674.789880 8053.980897 8901.271812 3395.553489 3880.704077 16627.115452 16267.221546 15403.290097 10354.162953 7079.651322 9017.481395 11202.569827 8850.047267 9282.808010 6905.718338 8119.158978 3675.464376 6031.719732 16670.959043 16750.385707 16255.999367 18171.543254 10519.644125 9572.534382 10019.956502 11196.320918 12619.232043 8354.876679 9785.278288 4330.394490 3837.900881 16454.695029 17182.460810 16662.775189 13020.731584 11607.690816 7943.102207 9971.798924 7441.731651 7287.969415 12833.891856 5922.444462 2678.459946 2873.252347 15979.148331 17473.150336 15033.689621 10111.256443 9117.489174 10134.071351 11075.810403 10002.366377 9571.529400 10842.551446 5095.261657 6626.168331 4771.294129 15493.713135 17485.051989 15963.187888 12667.421765 7757.439666 13112.119706 9795.688393 7030.668740 8617.900546 2007.254458 4559.309278 6090.615732 2997.626180 15115.269994 16260.066595 16722.879854 8900.248792 12232.708220 12221.270963 9102.140180 4487.677661 10650.888034 12988.276864 8871.467967 4316.922284 4091.155986 15292.347862 14535.841977 14990.021982 12434.936151 8024.566180 10150.720780 13750.729774 9827.355678 12298.205722 8198.063501 5384.543362 4290.162099 7143.812214 15790.446016 14772.194308 14691.893958 12755.094652 9288.772993 10326.028217 13983.390094 12348.763963 6793.029226 2803.327916 8003.493660 2543.141291 4081.183110 15874.767431 14524.809741 11645.458799 14474.262110 10545.613766 9024.309409 7655.021018 11599.341739 9789.120024 10615.515143 7549.083503 3212.871411 6862.132419 15764.472701 14539.342440 13055.903621 12400.856490 10754.259036 11044.252662 11799.834574 5047.984290 8479.885235 4990.813002 5734.361013 4815.088390 3618.297573 15667.054266 14861.659074 13797.246708 11651.833770 14137.065967 13062.274956 15739.665991 12808.016468 6752.247371 10796.120317 11661.829578 4545.181967 2892.469987 15593.051054 15568.010933 15999.947544 9283.737127 11251.463123 12842.448095 12460.748982 11728.842983 2605.328904 8523.600372 5702.882707 6805.945413 4851.563425 15714.030166 17085.494022 18173.914420 9803.529968 5486.651018 12349.129177 11867.663895 7628.703088 13101.563205 9630.551797 8104.645441 5637.327157 4622.324161 15891.892188 17248.604416 16716.492344 12691.552709 12428.782291 12677.317800 10419.459784 9549.912865 11720.940893 9520.663305 4920.180373 7880.469596 4643.130253 15857.205820 16995.753540 15540.056321 10708.042141 11447.099363 13281.712214 10112.856922 10793.666342 10189.212715 10826.815470 1763.791829 9798.870798 4637.884658 15754.182743 14452.743913 10965.914258 15801.636478 7202.074170 9710.960793 12699.642826 8598.353952 11749.237284 11163.040530 4287.177162 2379.052585 4642.743954 15764.745154 13464.130881 9399.953910 10923.427714 10099.017497 11152.984000 10624.876081 9975.652734 13715.120645 11359.009223 12068.301431 12119.476367 1677.939306 15661.852585 16086.976439 16311.803318 13611.765266 10532.384672 12873.045662 14238.256471 10862.069311 9483.388269 12057.762801 8559.728533 4413.548035 2633.475007 15538.543997 16074.043803 18238.658273 10019.525158 10126.871407 8260.228025 13977.695409 11249.667137 10935.575099 5859.677449 3304.337744 8120.278780 5463.902372 15581.369648 15192.088033 15010.263368 10256.921804 10539.627401 12270.523592 11361.796378 12449.839473 7751.800903 10724.005137 13818.739890 6139.640666 2611.685099 15498.647554 14052.256571 11788.354752 13846.510455 9948.890925 10315.569260 13673.316199 10904.056136 9228.904950 12286.951580 9553.566439 4557.996139 4621.852019 15177.076113 14539.539560 12325.625717 15879.567983 14196.644237 7117.253905 10616.167126 10086.092496 7198.181726 7570.590117 7888.751510 12819.189285 4086.474010 14894.918298 15145.234651 15518.272661 13493.866627 9657.841883 13076.806229 13537.910452 9259.033173 12850.102643 6659.938160 9089.102118 5620.375719 4874.230226 14806.388352 16232.933634 17192.332612 11228.936659 10205.462129 14262.885405 10386.703152 7488.535208 10654.742341 11546.213685 11691.515985 1326.295981 2900.591226 14538.616550 15748.450900 13800.994907 10991.268566 11453.711789 12805.097970 8959.381062 14710.665338 6086.122317 9862.382013 5549.338282 4797.765265 4904.907030 14186.444016 16408.217693 14642.473140 8644.611807 13277.504381 10969.864656 12906.537927 13068.547366 8711.903293 2881.117880 10180.321791 11079.085285 12347.504830 13749.891862 15817.297013 17231.335021 9743.827962 13579.819762 10913.756659 15731.482858 12214.157268 9440.808607 12509.951714 11277.609353 9859.394691 5463.251826 13307.391022 14685.331812 17255.971600 11962.054729 15945.905667 12959.105053 14046.362776 14536.662351 12597.277946 14763.041060 12705.461485 11178.187262 9560.706854 13062.583893 13683.986189 16629.801603 15232.250196 11936.404312 11662.619267 10407.849881 10511.826911 15749.189469 12129.417658 10856.427708 12782.454822 10156.353982 13046.410800 12987.035878 13382.457590 9404.066039 11107.619975 13670.710564 14341.300219 11821.617021 15106.657407 13914.213574 11556.367280 15280.616355 13493.551876
</DataArray>
<DataArray type="Float64" Name="Velocity" NumberOfComponents="3" format="ascii">