<VTKFile type="PolyData">
<PolyData>
<Piece NumberOfPoints="2177" NumberOfVerts="2177" NumberOfLines="0" NumberOfStrips="0" NumberOfPolys="0">
<PointData>
<DataArray type="Float64" Name="Pressure" format="ascii">
 18724.661122 18854.084597 18911.110925 18802.880496 18511.668785 18026.101587 17281.792486 16418.952675 15516.503735 14464.897674 13231.646964 11797.469307 10198.445201 8574.287585 7180.467579 6239.845980 5676.519960 5217.722902 4575.088547 3610.930575 2449.209310 1276.210713 160.352423 -896.441940 -1853.045028 -2653.621757 -3195.659216 -3438.565061 -3452.060283 -3336.451253 -3162.435945 -2965.564292 -2761.100504 -2556.151849 -2354.921002 -2160.310646 -1974.353479 -1798.373266 -1633.104707 -1478.811587 -1335.402156 -1202.534772 -1079.708310 -966.334421 -861.791336 -765.460984 -676.753198 -595.123837 -520.101616 -451.362176 -388.954844 -333.836779 -288.501668 -255.876447 -236.365729 -228.002249 19238.482137 19117.634430 18855.605345 18859.374273 18950.354768 18977.012376 18176.309782 17136.428858 16290.690560 15217.002341 13895.607025 12236.779551 10608.369371 9056.162382 7697.121027 6874.903966 6314.437265 6051.788274 5760.567265 4733.636933 3394.180757 2144.353164 803.598749 -552.710932 -1574.691544 -2401.652247 -3047.173586 -3379.532422 -3438.251973 -3335.691060 -3163.244531 -2966.034023 -2761.323363 -2556.300665 -2355.067841 -2160.473577 -1974.531325 -1798.559725 -1633.293225 -1478.996848 -1335.580378 -1202.703583 -1079.866443 -966.481322 -861.926575 -765.583010 -676.855877 -595.185676 -520.051605 -450.976053 -387.564523 -330.118355 -281.347498 -248.396973 -230.458313 -223.391795 19767.168479 19022.915993 18708.537130 19392.395296 20794.205229 21954.561316 19187.377687 17897.083825 17948.092354 16911.494449 15380.224015 12399.472598 11772.786329 10641.646473 7928.697485 8845.854383 7532.096771 6871.335779 7984.306563 5958.353006 4777.228338 4306.904240 2075.580963 -662.549039 -1557.606500 -2198.344566 -2880.848995 -3298.833194 -3420.224473 -3336.763460 -3164.684956 -2966.673050 -2761.510559 -2556.288846 -2354.964969 -2160.324545 -1974.357849 -1798.374638 -1633.105135 -1478.811715 -1335.402175 -1202.534711 -1079.708068 -966.333616 -861.788696 -765.452332 -676.724858 -595.031023 -519.797752 -450.366098 -385.720291 -322.676497 -264.451588 -233.903880 -220.339511 -215.701247 -230.262071 -216.251026 -210.407083 -198.514385 -193.507740 -190.619384 -167.652990 -166.448780 -165.319718 -142.728807 -142.406038 -142.010773 -121.387141 -121.320157 -121.167548 -102.938501 -102.944337 -102.871285 -86.979974 -87.004997 -86.959404 -73.212683 -73.240874 -73.206388 -61.381218 -61.407912 -61.379292 -51.256280 -51.280264 -51.255691 -42.629441 -42.650553 -42.629261 -35.311366 -35.329758 -35.311311 -29.130897 -29.146811 -29.130880 -23.934258 -23.947949 -23.934253 -19.584167 -19.595884 -19.584166 -15.958846 -15.968822 -15.958845 -12.950940 -12.959393 -12.950940 -10.466389 -10.473515 -10.466389 -8.423271 -8.429249 -8.423271 -6.750651 -6.755641 -6.750651 -5.387467 -5.391612 -5.387467 -4.281452 -4.284878 -4.281452 -3.388120 -3.390938 -3.388120 -2.669820 -2.672127 -2.669820 -2.094861 -2.096740 -2.094861 -1.636716 -1.638239 -1.636716 -1.273303 -1.274532 -1.273303 -0.986340 -0.987326 -0.986340 -0.760769 -0.761557 -0.760769 -0.584262 -0.584888 -0.584262 -0.446773 -0.447268 -0.446773 -0.340163 -0.340553 -0.340163 -0.257872 -0.258177 -0.257872 -0.194641 -0.194879 -0.194641 -0.146276 -0.146460 -0.146276 -0.109449 -0.109591 -0.109449 -0.081535 -0.081645 -0.081535 -0.060474 -0.060558 -0.060474 -0.044657 -0.044721 -0.044657 -0.032836 -0.032885 -0.032836 -0.024048 -0.024085 -0.024048 -0.017555 -0.017583 -0.017555 -0.012799 -0.012820 -0.012799 -0.009362 -0.009378 -0.009362 -0.006939 -0.006951 -0.006939 -0.005316 -0.005326 -0.005316 -0.004357 -0.004367 -0.004357 -0.003995 -0.004004 -0.003995 -0.004227 -0.004238 -0.004227 -0.005118 -0.005131 -0.005118 -0.006809 -0.006825 -0.006809 -0.009526 -0.009548 -0.009526 -0.013609 -0.013639 -0.013609 -0.019532 -0.019572 -0.019532 -0.027945 -0.027998 -0.027945 -0.039720 -0.039792 -0.039720 -0.056015 -0.056111 -0.056015 -0.078348 -0.078476 -0.078348 -0.108694 -0.108862 -0.108694 -0.149596 -0.149817 -0.149596 -0.204312 -0.204599 -0.204312 -0.276973 -0.277344 -0.276973 -0.372791 -0.373266 -0.372791 -0.498284 -0.498890 -0.498284 -0.661557 -0.662324 -0.661557 -0.872610 -0.873574 -0.872610 -1.143706 -1.144910 -1.143706 -1.489774 -1.491270 -1.489774 -1.928879 -1.930725 -1.928879 -2.482730 -2.484994 -2.482730 -3.177251 -3.180013 -3.177251 -4.043202 -4.046550 -4.043202 -5.116848 -5.120884 -5.116848 -6.440679 -6.445515 -6.440679 -8.064165 -8.069927 -8.064165 -10.044545 -10.051374 -10.044545 -12.447644 -12.455692 -12.447644 -15.348683 -15.358117 -15.348683 -18.833101 -18.844099 -18.833101 -22.997332 -23.010087 -22.997332 -27.949546 -27.964260 -27.949546 -33.810312 -33.827196 -33.810312 -40.713157 -40.732432 -40.713157 -48.805004 -48.826893 -48.805004 -58.246434 -58.271164 -58.246433 -69.211757 -69.239552 -69.211756 -81.888850 -81.919926 -81.888845 -96.478715 -96.513276 -96.478700 -113.194747 -113.232971 -113.194699 -132.261654 -132.303673 -132.261499 -153.914045 -153.959875 -153.913538 -178.394690 -178.444038 -178.393040 -205.952661 -206.004299 -205.947292 -236.841988 -236.891722 -236.824512 -271.323009 -271.357065 -271.266130 -309.673614 -309.646813 -309.488512 -352.234960 -351.996633 -351.632571 -399.569013 -398.603545 -397.610327 -453.232207 -449.509495 -446.832006 -514.890477 -500.967195 -494.680342 -548.550757 -525.665061 -515.503736 13085.125122 12768.327955 11900.901050 11645.459972 10236.987394 9132.748738 9577.987301 9127.587137 6635.971481 5551.550813 4801.417134 3345.857520 1376.918801 -1716.581280 -1525.677344 -1482.890393 -1864.811093 -2265.158046 -2595.658544 -2829.066175 -2966.040032 -3020.535546 -3013.178813 -2966.166699 -2899.253966 -2827.425917 -2760.242608 -2702.347634 -2654.549198 -2615.034433 -2580.476515 -2546.939332 -2510.560885 -2468.026708 -2416.854022 -2355.512012 -2283.408618 -2200.779097 -2108.513789 -2007.960689 -1900.732498 -1788.539206 -1673.057866 -1555.842686 -1438.272073 -1321.524978 -1206.575918 -1094.193243 -984.909865 -878.875772 -775.382361 -669.143798 -576.491547 -537.196752 -520.253241 -513.922270 13060.875566 12934.503212 12624.524874 12057.944879 10515.807104 10396.751637 10998.874800 9930.962472 8020.003834 6611.787932 5347.742818 3701.590488 1946.578691 304.577899 -661.403750 -1292.975356 -1807.001412 -2246.546668 -2588.624332 -2825.757203 -2964.147610 -3019.369644 -3012.504731 -2965.856444 -2899.198070 -2827.524216 -2760.411185 -2702.523544 -2654.690564 -2615.117736 -2580.492936 -2546.891059 -2510.457705 -2467.882933 -2416.685804 -2355.335132 -2283.236859 -2200.623245 -2108.381242 -2007.855576 -1900.656151 -1788.490836 -1673.035320 -1555.843276 -1438.293709 -1321.568590 -1206.652418 -1094.345796 -985.287112 -879.984788 -778.904140 -683.163549 -601.386954 -553.986261 -530.890081 -522.074105 13039.496372 12898.725770 12730.363162 12473.367154 11971.163889 11475.730660 10645.292932 9285.990041 7933.227333 6667.342277 5340.490167 3784.031210 2190.625865 768.777538 -333.550886 -1143.334013 -1757.444798 -2231.859429 -2585.147044 -2825.731567 -2965.007746 -3020.231999 -3013.096340 -2966.146861 -2899.250127 -2827.425516 -2760.242707 -2702.347709 -2654.549222 -2615.034433 -2580.476510 -2546.939327 -2510.560882 -2468.026706 -2416.854021 -2355.512011 -2283.408619 -2200.779098 -2108.513793 -2007.960704 -1900.732546 -1788.539362 -1673.058376 -1555.844354 -1438.277518 -1321.542758 -1206.633971 -1094.382780 -985.528461 -880.898156 -781.913428 -691.974506 -617.921310 -567.609981 -539.663915 -528.318372 19991.100898 19656.003451 21589.040522 20455.506110 21993.394264 23694.499318 16965.105580 16790.587726 18241.721086 18149.879140 16069.138281 12423.789110 12881.774228 11837.992977 7830.651932 10555.444847 8152.365671 6605.100203 9647.556247 6052.633131 6312.959938 8704.809245 3021.736033 -2364.937892 -2492.668713 -2171.045302 -2839.660242 -3272.922696 20727.216429 23595.972468 33320.864923 23074.188391 25958.121063 19273.812133 22050.589797 27704.516260 22949.993338 24020.288595 22167.848447 17461.714194 24015.052012 20069.816916 24200.233967 21796.203903 16001.644193 24526.208430 20804.923772 23329.898536 23799.471690 24577.865619 20718.268469 23661.433853 9995.938221 21059.564307 2215.607773 -750.954285 21856.935306 24736.811843 30362.464033 18957.929548 22356.571238 18998.902091 19563.437451 22585.237992 25534.243238 18316.949817 15990.999372 15420.358338 19629.932048 21261.757998 24815.762627 20893.918217 15683.748856 19933.456354 18957.618550 18925.741108 22654.322826 24015.502000 25053.410037 19702.716076 23776.301239 18698.560328 19589.986110 20690.477561 22589.964013 23112.097923 20683.592731 19209.568415 23335.352309 16845.423536 18761.889266 21801.244178 20323.855461 15264.706490 3190.631512 13425.002068 21195.665524 15470.452776 20057.359215 24304.413562 17932.740443 21175.786685 12940.013833 19296.174117 16702.793739 10504.841538 10368.781487 16106.848698 14074.521799 13643.628956 20792.133621 14251.882054 22986.305277 22400.745124 18989.297185 23101.595495 14775.879519 25987.404741 14929.727289 6210.229844 18623.636701 8345.780182 14012.687560 24807.507444 14741.768642 19725.342706 4699.119297 13294.798122 19940.790846 21910.151224 10844.241877 18653.601627 5116.829953 15575.831579 21781.283421 6669.723110 6773.506304 5469.110674 1649.494532 10314.755968 23801.910667 22158.409020 17296.420486 23990.646517 19123.797807 19798.724345 23787.146447 17697.854967 21315.343371 13006.722642 12012.989023 17012.055731 12152.761338 10544.610549 11996.608747 23984.622597 17741.616030 11140.458693 16025.525944 17845.571192 12885.553928 18814.546250 19966.376301 19336.373282 16309.408077 9961.555381 6254.127692 6113.887291 24168.778571 24578.239311 23936.038114 23463.721101 18132.888454 20406.904122 10805.127667 14540.202580 18738.726016 16799.219737 13260.827221 16504.284686 19399.004590 21285.304378 23141.602281 11646.204378 8143.743551 22084.757028 12948.596312 13892.924648 713.208443 17130.808139 16700.406834 12371.362422 6752.820730 9853.396774 6669.499968 2187.790039 23845.882505 25710.263414 29895.650894 19195.241006 19864.354814 18583.184519 18672.060037 15887.757628 18604.878073 18982.156057 13719.567290 17816.968056 13341.772961 8114.646292 19495.487425 17411.311689 13355.373942 16711.194028 864.553402 10932.736774 18193.704068 14370.472966 7862.402359 6859.247621 10479.443871 1417.049426 8323.598499 8080.686182 23664.267780 24402.796259 25423.414356 20118.584017 21199.745374 20995.105564 16864.895174 20731.225152 18298.061238 8086.368120 13077.924849 18000.874517 18874.347686 21022.195641 12359.427089 9231.718052 10253.430464 5475.983125 14182.242193 6163.651510 11092.653425 13098.009836 7452.323021 9671.827157 9415.497454 7388.150463 10189.549754 2079.308233 23984.363022 24558.077405 23012.557790 21843.985435 18473.778153 16750.137867 17546.895097 15080.407227 5625.890624 16755.087202 2040.871695 8359.823722 5956.284785 7158.404024 8158.757896 10874.985982 5940.665278 7558.970698 20263.555077 7258.196482 16059.162421 11541.901385 11351.191281 8411.724808 15413.697791 10962.198986 8128.910704 425.643011 24222.684010 22521.925793 16789.235128 19119.952403 17083.912437 19815.465508 14246.769281 24024.168179 15438.930425 19341.872642 12315.970019 17271.347752 8700.513046 11965.453478 16946.413280 6287.230619 4820.249969 7275.821318 12578.646790 9861.048572 12060.296570 6826.223543 4720.312282 6658.874539 10895.808460 6867.342289 1489.169423 4998.013134 23853.498099 21436.320759 16644.861695 20717.271222 15054.067645 22477.882902 16093.379012 9748.129565 10353.302104 13873.285202 6362.327804 13892.303213 13320.202730 9466.100659 9806.241036 17264.982249 17785.974257 9500.141651 6705.713646 2299.287847 4677.264151 5189.675139 11548.641721 10257.525210 8845.166549 10257.908247 6688.819647 -548.715163 23264.499150 23396.727002 22139.199080 15487.443477 17774.793523 16806.472998 18621.299681 8232.581304 16295.327108 10410.744493 14481.755072 5352.739208 12059.954014 4867.817599 11522.266088 10693.813895 8252.446584 3865.367485 8910.729715 10784.604513 11809.044515 9973.856611 7580.745017 7730.055533 13790.509272 16109.526489 5680.227512 5221.326504 22836.150327 24110.880903 25136.795098 17827.043376 17620.462220 8314.798757 18019.587421 16868.381789 4901.294762 17463.098955 18924.324561 6917.401257 8572.006141 3900.244096 5437.827863 5429.542745 6878.702200 5347.757870 15008.908855 5819.155654 14850.528770 2456.554865 17759.297228 6412.243793 7230.244576 15340.777354 -409.830899 3168.911895 22498.415474 22722.530876 23288.288644 17308.887921 15116.372282 17235.143557 13515.065698 16125.038609 6043.843736 18686.828746 13914.371951 7926.195329 8506.839243 2588.434318 3130.870439 2205.369533 4313.110691 2890.563280 4809.385774 1863.028803 4668.826561 5403.733210 4129.105164 5025.661014 3977.916616 6883.526092 3861.689787 -2076.740858 22350.393677 23529.484737 24594.048431 20006.156187 17856.626142 14879.774772 11149.630154 13349.311034 7718.916810 9442.247934 10124.216718 8961.650988 3481.706084 22568.427996 23723.296117 23541.724548 12889.685260 21051.775955 17642.875714 16864.944919 10905.364123 12434.890005 9928.061506 4528.765492 5131.204003 3655.375885 22760.432329 22527.300932 20499.329159 14268.556644 17069.032544 15084.565246 13891.462457 11813.709133 5554.332924 9798.804232 8458.043644 5078.150994 4646.460817 22485.558014 21477.559606 19821.572370 16585.131138 15655.515167 7689.221044 12935.146777 14243.812302 9150.543853 7587.690878 6070.733048 9507.052764 2768.376463 22115.961932 21663.758186 21806.781678 16013.161862 11216.203752 9191.777183 7513.052703 16905.346770 10206.657827 8613.545167 4409.854212 2028.695837 2324.675685 21969.311114 21818.080741 20830.001898 18115.756767 17496.021228 13959.338090 13992.010690 10493.869200 13694.958433 3988.486066 5351.266919 6639.383456 2320.211870 21887.298239 21947.288423 21778.068181 16643.102223 18265.116893 14912.310975 9343.000503 10532.891908 5237.106132 10649.554190 6564.139415 9996.965185 4601.922473 21638.831301 20313.584034 19577.108669 18690.975666 20641.965026 14443.668993 12518.627186 5851.113416 9383.236800 4748.267622 5427.477153 3323.035622 2682.301447 21264.886727 20341.856504 21541.858387 16456.378973 19537.056293 16009.038207 12978.271336 10050.840213 12073.356266 7366.999163 6247.639711 2166.332497 3268.265893 20862.957021 22438.344533 27176.017761 10432.985641 15627.422688 16642.638252 12756.318282 14384.210427 11764.485706 8462.899671 11159.749182 7548.869004 1079.722805 20568.968980 20666.394993 23448.815252 18496.442915 16682.007612 11693.998237 15872.326659 4560.662029 6536.186943 7051.228097 12281.539208 12276.636012 7252.690880 20405.678128 19402.493421 19500.052854 10317.939408 12456.940019 12673.956749 8260.163093 11980.672267 10675.039143 13264.099050 4694.678172 3255.704765 4831.731998 20348.307529 20309.655337 19968.049556 16684.768816 16506.637648 15668.819646 11940.316293 13429.874061 11147.255757 8546.954555 10582.456666 5430.913930 3913.705685 20256.469963 19994.758919 18867.733018 19797.092074 12811.398700 14967.044849 6654.431790 4012.710551 11798.599249 12829.571674 4389.118308 4218.200595 1447.370142 20055.749806 20607.077986 21262.224944 10990.019010 16655.751626 17768.332395 10363.299652 12731.789515 5780.449838 7966.051237 4447.151364 6338.784979 2285.940582 19756.440769 18652.532368 17930.986384 17170.472329 14260.397771 12980.882450 15132.112017 10674.055724 15138.176857 4256.529027 7979.108889 5262.240956 1089.713494 19459.155323 18096.079991 18530.176906 13934.082334 11518.854740 7086.253398 3406.494562 16108.517817 7196.524390 13340.496075 8270.627059 889.331906 2345.291897 19208.112257 19640.354562 21343.898680 20881.263091 16711.247931 17499.314481 7115.938439 17725.723298 13064.163338 7270.835575 8433.926439 5651.742719 3960.642599 19065.100494 20370.211661 22547.045250 17361.363818 11027.801079 13318.493458 14414.484018 8185.194529 9695.141827 7618.022189 7221.861306 8009.356035 2490.238547 19058.983903 17736.897396 15009.422259 22444.981989 21962.135038 13730.576123 9329.714243 12927.237514 7746.498903 14234.694895 5014.978457 3006.631237 3379.298109 19151.902074 16566.911592 11773.385525 15608.740733 19725.046411 9732.028839 8789.880909 9866.050766 9685.147684 3856.975731 6579.522503 6835.120486 3250.006230 19125.629074 18106.406803 15718.934773 18534.681362 19410.779961 18189.228707 12598.120699 16171.192660 6915.424971 6937.076478 6726.828371 3625.489365 4499.278112 18883.161944 16699.949450 13935.015671 18950.205860 13780.696003 15859.084020 19118.060056 8369.230639 10839.632200 7858.243135 7450.056616 5169.698582 4226.150948 18545.890745 16401.623064 12824.342625 16436.851077 15775.733911 13059.631967 11532.845517 13721.014543 13050.488579 12233.645199 7596.470604 6767.795849 2750.679880 18271.829437 18129.122570 16698.914209 18601.337781 17241.469180 17493.209360 7861.432377 13720.061628 17056.648819 4990.607753 5906.090692 6682.226127 3612.519541 18104.417232 19169.763828 20429.037991 16119.755752 17366.173800 5238.558895 12218.883620 13602.980220 11393.803980 3204.680754 6769.631815 4648.242888 9362.664939 18078.977060 18304.612845 18395.932099 9745.082090 13546.694293 14460.610894 6067.926658 8419.777887 6089.929554 3743.955777 4002.793096 4685.669026 2950.856942 18239.051073 17317.108729 14349.521167 15577.361717 8493.548562 5234.832593 6516.019415 6689.051142 6900.012654 2796.147137 2766.878198 8554.717418 3555.083587 18310.576525 16349.999910 12343.919201 17139.700160 14942.868252 12968.430070 5439.198972 11775.467412 8868.074048 6780.237023 7678.341511 2455.529987 2729.149409 18190.440133 16591.054693 14330.825091 16214.547840 16297.387388 12292.820694 13993.524686 13097.116541 12834.557089 8516.170215 4464.466855 2747.459647 880.715308 18102.333646 17580.912895 16490.105240 16796.419778 12229.382230 13298.230337 10346.307137 7108.264267 5419.255157 2487.433817 6465.317838 1221.445307 5372.422686 18240.395226 17592.850629 14554.787416 14018.052538 14930.101391 9655.015963 12749.960034 7195.188456 6031.118205 7902.170409 2901.483295 6251.611798 3063.581870 18368.441574 18225.922529 16895.683485 12206.388138 15094.485315 11484.049472 4275.422859 4266.932564 3722.220017 2595.554857 5255.048193 5795.377549 1041.705147 18039.336830 17650.972777 17162.622250 16445.586153 12981.698236 12950.836275 9368.511476 11905.417681 11845.530755 8842.132473 1539.419477 3565.385050 3393.671426 17595.231415 17885.558900 17847.777869 14125.277569 14929.621674 14783.858129 9220.365141 10641.394438 4417.331681 3003.574447 5249.312320 5651.045320 8443.407185 17331.216998 17289.338723 16529.184677 13893.836307 7913.544669 14805.118620 13721.638547 10915.741686 6057.857230 5810.679566 8420.536514 3803.033676 3440.358178 17267.831299 16896.448067 15059.801271 15697.877048 13081.026275 14553.431026 8135.123242 3613.827673 4566.197059 8139.350704 2993.782117 1360.942751 3335.949505 17246.560253 17659.623783 16720.474504 15588.897940 14353.886793 8412.895669 11992.342174 5232.484147 5767.095904 7916.157754 5622.916398 6227.895332 4149.565857 17247.013055 17708.556878 17902.615922 15242.411004 11135.336507 13381.126488 9466.643900 12904.570598 12995.790928 4555.708747 6328.133743 5903.206485 1188.199129 17272.637576 16923.502469 17232.975932 16193.869989 14148.620200 13028.207233 11788.417940 9050.505818 5367.243456 8243.117584 4587.175942 8582.496769 3210.441518 17461.195188 17171.509813 16087.787569 11321.262330 13169.918865 12575.116217 10038.427567 10873.662546 7576.460218 11600.249282 6501.747503 8006.127595 3296.142771 17580.539356 18050.152933 17776.929168 15899.189547 14654.674727 11614.633782 12465.411124 7295.605945 13918.178970 9214.363949 4878.493646 4159.675696 3512.012607 17416.377175 17076.096139 16712.802471 15948.133534 14885.770022 12875.019648 12926.257455 11265.522217 8507.214604 5633.443189 6105.925802 10432.117175 2981.506697 17313.235651 17423.986964 17774.094948 14586.582708 10537.796741 6778.376558 14259.252602 11428.135216 7938.338177 7024.383396 5851.104072 3013.913169 3048.693890 17386.713287 17624.171380 18271.975566 17031.649064 14658.510305 14652.119765 9667.838601 13124.295174 11212.455231 3315.985638 5456.701746 5252.680273 4544.954801 17369.392919 15721.487118 14225.292133 10037.838192 13771.921285 11235.938191 6571.120443 6347.337127 3760.362534 9829.909457 8880.735176 2001.399172 3927.481272 17280.112057 17025.923495 16131.606557 12370.036691 13268.116965 11962.533100 14430.482927 10284.641247 6489.617970 4502.929093 7949.287972 4173.447061 6150.728401 17109.045359 17081.901057 15994.251890 13679.052733 11325.296709 11866.968097 6114.005894 8106.358507 6059.171081 8168.907740 6435.628231 10434.162780 4184.569759 16893.469538 17015.597295 15589.720439 15453.925220 13556.790710 12242.086140 9478.012257 7830.867233 5251.153944 5481.218350 6261.154987 6667.251610 2820.023746 16768.886264 18338.331104 19340.343290 13306.223502 14257.005745 9298.924034 7876.525325 10631.264057 9477.773895 11063.878390 6281.352592 5205.038958 3265.334678 16662.173918 17416.561598 19783.301361 15482.960264 11457.628271 16057.204680 5885.487025 8193.568943 9575.053054 3579.271067 12649.864424 5770.365369 4678.415093 16555.250977 15290.696495 14681.730625 16407.543400 13522.394702 8761.619841 10031.154799 7786.185246 9279.115322 4631.788940 3321.693782 6660.722916 4132.136375 16625.348900 15401.803081 15357.200978 14985.943435 12624.760532 3975.743728 10204.112389 7556.791044 14942.407049 4502.400457 10125.830670 4866.946779 3699.988462 16652.288749 16044.901862 15819.819932 16282.406166 12159.918500 11504.426661 6365.594874 12402.252693 17858.894713 5438.510672 10547.974734 10078.683476 3120.072023 16374.233479 15470.919691 15499.947205 12225.891166 14364.735906 8943.410910 12254.171285 9357.645588 6699.833940 8652.288976 4092.795333 8528.972365 1094.815316 16360.763964 15071.082502 13399.880998 17449.965826 13543.044497 12209.516855 15753.299825 11872.387780 9890.353880 7283.733344 7219.286433 2404.765164 5713.375311 16495.637080 15245.937780 12765.592953 12920.805939 9841.411857 9072.289055 8488.291921 10410.213676 13380.755191 7640.087508 6348.696048 5755.247011 6301.329816 16418.124772 16231.687135 14782.695458 15508.011115 12138.535077 12741.109756 15544.469794 13671.283940 10278.717440 4878.490056 14163.642926 5068.496556 2180.794498 16403.037862 17244.969645 17312.180998 14953.123681 10176.187556 7974.937875 11380.406581 11858.037596 12551.709204 5113.545191 3371.349304 2337.269366 1382.737462 16385.856211 16522.664085 16238.085786 14600.521714 15328.064557 12378.209719 11527.681849 9486.373918 10951.516705 13741.953913 4707.193855 6025.220581 3974.039048 16230.612475 16545.542775 17083.556622 16347.690925 9666.333945 12221.804684 10522.839127 6008.690302 8136.000353 5047.042241 4980.231325 5097.918289 362.248921 16194.656800 17008.406676 17426.582246 11665.483814 12697.047684 13405.866778 9966.170547 363.986412 8521.247553 8877.272661 5734.268567 2367.629730 3881.459791 16109.780065 16322.547155 15390.327681 15690.148634 7980.342946 11916.911683 12769.471109 8668.162358 11869.058005 11455.739813 6663.024253 4895.030954 6341.755812 16054.113253 15460.646680 12806.659994 12778.115927 9062.691770 12934.015324 11777.315618 9542.344886 7055.573217 4871.177461 8352.774478 5133.455586 1709.677550 16123.551923 14801.033752 11724.313774 16121.385171 14350.458703 12271.817886 4906.378024 9591.437734 5212.720848 7541.687778 8442.145974 4946.222401 4412.669408 15783.090811 13597.051622 10757.067292 14391.827165 12444.831029 11713.951014 11094.900470 5381.900128 7805.495904 4611.114588 5804.428017 2658.485750 2655.601754 14932.051749 14384.580495 13642.720973 13900.942589 13555.206392 12196.135460 11110.609639 11712.346879 9490.586083 17382.955472 13621.077514 4183.576230 3755.613617 14292.948202 16185.618747 19719.384100 15394.301544 15025.432457 11128.704810 13969.142404 10178.357590 4417.079563 9452.179226 4629.122578 6889.342833 1816.958965 14157.578942 14365.429797 19679.766860 12757.660462 8173.377281 13615.855510 13235.225419 4573.371608 9619.547426 8829.190731 5710.390588 7131.413500 3628.579075 14510.935114 13357.378754 17361.799590 15620.007660 10997.659564 14150.989269 12237.725068 11226.321102 11849.241847 9112.797796 7975.181678 5746.103774 5663.711857 14891.804963 13326.036907 11812.885070 12364.120351 10542.278518 8580.531615 18376.231928 8530.268650 10957.936773 12017.565991 3914.766532 9305.278592 4414.682698 14762.130788 13748.372683 11191.690861 15946.720858 9916.725007 6754.345325 15631.884220 12678.287814 12544.165024 11291.693056 3712.051730 4087.927303 4754.950968 14436.263414 14454.518934 13958.145185 9861.517142 14173.580632 13172.543841 13559.307055 12251.046688 14426.081561 8214.162285 11668.926662 12187.175781 2518.960754 14373.155149 14723.116999 14904.443404 17134.750881 16510.234321 13221.728030 13080.778724 8344.933060 11630.219703 10665.418687 7927.330164 2851.651618 5266.505564 14368.008553 15359.052146 15522.030226 13550.918691 9312.638205 9996.498004 17552.074451 8815.922020 11538.968040 5002.208190 2169.015806 6556.668764 773.206272 14432.650509 15189.113187 14559.239301 15482.346969 11901.465314 13061.731259 10868.981811 9593.868840 4690.957373 9631.122245 9342.602918 5554.987225 3914.261748 14725.224257 17356.876370 17197.552520 11745.275254 14228.088791 9718.572148 11632.764851 11323.707381 8038.158934 11467.257302 9025.606824 2300.499957 1651.445558 15075.427956 18367.582038 18253.412603 16127.756552 13034.803136 5978.798397 10935.531695 8273.913565 3333.381453 11233.651259 9469.332927 11783.302387 3587.733712 15234.290702 15676.778918 13626.181130 16286.419044 8329.108208 10889.507448 10269.207527 11818.041198 9727.690378 5639.131053 5381.425770 2922.901072 3393.009935 15266.219485 13838.285344 10838.169223 5854.509910 11159.630561 13716.728217 12341.018298 8315.876793 11591.137164 12916.896321 12696.912328 3087.927396 2785.212612 14944.336599 13823.130308 11143.129484 14081.009346 9063.553507 9742.568245 10018.551792 12430.442277 4489.701961 11013.277061 2504.083029 5891.352934 4137.808246 14417.321301 15355.891043 16806.453768 7785.177286 12811.962383 12589.591470 13918.812164 9965.572055 12007.622873 3682.388253 10936.631791 13848.163576 10576.337898 13775.831525 13993.538029 15527.806156 8307.724223 12919.250313 12026.884364 11305.602548 12556.395762 13305.486644 13859.744466 11533.230337 8167.624843 1671.706509 13320.360320 11937.867529 12457.361861 14383.866984 14461.449378 12310.937745 13551.721293 17820.617845 12781.711154 13496.074150 13651.055986 11255.987571 10768.998624 13145.843210 12300.985609 12126.464534 14942.673032 13460.413623 13677.323297 9861.053091 12906.461330 11276.240257 12302.631368 13656.682136 12116.345890 8378.229939 13085.125122 12768.327955 11900.901050 11154.807999 10841.884703 14364.416870 15076.692627 11000.752085 11633.251276 13454.391511 10785.513306 15057.730415 11694.371270
</DataArray>
<DataArray type="Float64" Name="Velocity" NumberOfComponents="3" format="ascii">