<VTKFile type="PolyData">
<PolyData>
<Piece NumberOfPoints="2177" NumberOfVerts="2177" NumberOfLines="0" NumberOfStrips="0" NumberOfPolys="0">
<PointData>
<DataArray type="Float64" Name="Pressure" format="ascii">
 14757.171676 14536.097863 14063.844471 13380.506866 12516.217934 11503.238731 10372.074256 9091.099033 7709.303225 6354.756680 5118.426733 4025.783709 3082.108847 2177.194007 1033.136509 -450.053220 -1882.972056 -2925.187907 -3601.023238 -4040.789717 -4326.213210 -4495.744013 -4570.390217 -4565.456576 -4494.137536 -4367.899482 -4195.055021 -3978.777488 -3720.968601 -3434.335737 -3140.860593 -2857.286241 -2592.242366 -2349.178790 -2128.528676 -1929.000115 -1748.415520 -1584.296487 -1434.255388 -1296.224539 -1168.554670 -1050.018424 -939.754257 -837.181209 -741.907694 -653.649738 -572.167661 -497.226851 -428.591448 -366.078473 -309.757538 -260.423416 -220.147518 -191.322681 -174.136739 -166.768016 14824.630941 14526.365591 13990.537733 13423.932281 12643.378734 11646.001986 10602.191308 9298.796775 7853.130456 6446.691179 5126.898645 3954.312679 3078.394241 2428.371913 1423.604427 -535.079468 -2274.633648 -3208.936742 -3733.548226 -4094.024844 -4345.321419 -4501.402908 -4571.217854 -4565.255231 -4495.295299 -4373.272989 -4209.117109 -4004.806197 -3745.439212 -3445.944915 -3145.365145 -2859.043348 -2593.084917 -2349.710848 -2128.935043 -1929.335035 -1748.696670 -1584.533188 -1434.455868 -1296.396931 -1168.706473 -1050.155884 -939.882017 -837.302207 -742.023099 -653.758398 -572.263615 -497.290471 -428.560300 -365.758028 -308.570555 -257.233459 -214.028926 -185.011177 -169.239751 -163.001467 14865.344592 14383.234012 14136.352193 13391.510342 12857.804808 11693.520235 11251.499187 9473.773579 7921.344022 6466.827612 4756.187282 3520.538738 3052.190772 3062.450179 2717.565583 -891.874097 -3388.596669 -3661.150404 -3911.699622 -4160.110518 -4368.661503 -4508.634417 -4572.721159 -4565.490247 -4497.098458 -4380.453794 -4230.228558 -4057.902632 -3803.934317 -3463.398647 -3149.884598 -2860.135140 -2593.139048 -2349.460959 -2128.617411 -1929.028003 -1748.424279 -1584.299236 -1434.256249 -1296.224804 -1168.554735 -1050.018386 -939.754056 -837.180523 -741.905435 -653.642325 -572.143342 -497.147088 -428.329948 -365.220105 -306.967008 -250.775684 -199.482746 -172.755153 -160.869806 -156.731432 -169.902507 -157.689167 -152.524567 -143.389990 -139.044944 -136.494895 -118.248492 -117.202493 -116.213458 -98.449940 -98.170758 -97.824603 -81.882405 -81.824889 -81.691453 -67.879718 -67.884694 -67.821363 -56.037880 -56.058838 -56.020051 -46.054330 -46.077504 -46.048884 -37.674171 -37.695653 -37.672508 -30.673911 -30.692771 -30.673403 -24.855711 -24.871913 -24.855555 -20.044680 -20.058442 -20.044633 -16.086991 -16.098591 -16.086976 -12.848183 -12.857897 -12.848178 -10.211499 -10.219585 -10.211498 -8.076237 -8.082928 -8.076237 -6.356121 -6.361625 -6.356121 -4.977732 -4.982234 -4.977732 -3.879008 -3.882668 -3.879008 -3.007834 -3.010793 -3.007834 -2.320737 -2.323115 -2.320737 -1.781690 -1.783591 -1.781690 -1.361034 -1.362544 -1.361034 -1.034503 -1.035696 -1.034503 -0.782381 -0.783318 -0.782381 -0.588741 -0.589473 -0.588741 -0.440807 -0.441375 -0.440807 -0.328388 -0.328826 -0.328388 -0.243409 -0.243746 -0.243409 -0.179514 -0.179771 -0.179514 -0.131724 -0.131919 -0.131724 -0.096170 -0.096317 -0.096170 -0.069858 -0.069968 -0.069858 -0.050488 -0.050570 -0.050488 -0.036303 -0.036364 -0.036303 -0.025971 -0.026016 -0.025971 -0.018483 -0.018516 -0.018483 -0.013085 -0.013109 -0.013085 -0.009212 -0.009229 -0.009212 -0.006447 -0.006459 -0.006447 -0.004480 -0.004489 -0.004480 -0.003087 -0.003093 -0.003087 -0.002101 -0.002105 -0.002101 -0.001402 -0.001406 -0.001402 -0.000906 -0.000908 -0.000906 -0.000549 -0.000551 -0.000549 -0.000291 -0.000292 -0.000291 -0.000103 -0.000104 -0.000103 0.000028 0.000027 0.000028 0.000104 0.000103 0.000104 0.000112 0.000111 0.000112 0.000022 0.000019 0.000022 -0.000223 -0.000227 -0.000223 -0.000712 -0.000718 -0.000712 -0.001583 -0.001592 -0.001583 -0.003043 -0.003057 -0.003043 -0.005394 -0.005415 -0.005394 -0.009067 -0.009098 -0.009067 -0.014674 -0.014718 -0.014674 -0.023068 -0.023131 -0.023068 -0.035424 -0.035512 -0.035424 -0.053339 -0.053462 -0.053339 -0.078969 -0.079137 -0.078969 -0.115183 -0.115411 -0.115183 -0.165765 -0.166072 -0.165765 -0.235657 -0.236067 -0.235657 -0.331251 -0.331793 -0.331251 -0.460736 -0.461445 -0.460736 -0.634508 -0.635426 -0.634508 -0.865645 -0.866826 -0.865645 -1.170461 -1.171966 -1.170461 -1.569122 -1.571025 -1.569122 -2.086354 -2.088742 -2.086354 -2.752219 -2.755193 -2.752219 -3.602971 -3.606645 -3.602971 -4.681976 -4.686482 -4.681976 -6.040708 -6.046194 -6.040708 -7.739784 -7.746416 -7.739784 -9.850049 -9.858012 -9.850049 -12.453678 -12.463175 -12.453678 -15.645286 -15.656536 -15.645286 -19.533006 -19.546247 -19.533006 -24.239532 -24.255018 -24.239532 -29.903071 -29.921068 -29.903071 -36.678182 -36.698970 -36.678182 -44.736460 -44.760324 -44.736458 -54.267015 -54.294248 -54.267010 -65.476710 -65.507600 -65.476695 -78.590089 -78.624912 -78.590042 -93.848963 -93.887954 -93.848809 -111.511599 -111.554891 -111.511096 -131.851527 -131.898953 -131.849891 -155.156123 -155.206589 -155.150792 -181.725565 -181.775034 -181.708199 -211.874344 -211.909240 -211.817778 -245.942471 -245.917942 -245.758244 -284.340895 -284.107033 -283.740889 -327.708640 -326.752168 -325.756186 -377.674327 -373.982324 -371.289305 -436.139622 -422.309169 -415.965595 -468.582637 -445.721794 -435.515342 17314.748005 18066.032115 20031.363842 19273.136654 19475.826273 18778.890330 22587.465755 20758.826040 19714.784817 15720.389924 13588.371794 14882.685720 11518.412067 10980.764527 6488.191964 9506.285072 13186.778627 7484.892364 8653.499402 5607.826330 -8084.235067 -13051.009832 -7710.729558 -5202.340902 -3540.563599 -2690.000602 -2374.914792 -2377.359982 -2526.615948 -2701.807553 -2830.781592 -2886.459390 -2873.542470 -2810.385296 -2715.470889 -2601.906264 -2477.450901 -2346.417822 -2211.361198 -2074.043971 -1935.866718 -1798.023665 -1661.551270 -1527.343228 -1396.157906 -1268.624900 -1145.249748 -1026.409108 -912.311826 -802.839932 -697.063890 -589.519708 -496.504158 -457.247650 -440.302021 -433.895074 17424.609402 17835.638240 17937.672576 17554.225597 14771.529443 14355.693619 15496.795837 15410.793663 17164.887650 16854.924453 16162.980095 16628.399221 15441.527625 14170.247236 13092.342379 12411.698860 11923.334741 9438.310268 8101.391698 6246.719361 3299.369084 -230.390158 -2069.137575 -2255.693995 -2067.484145 -1993.041869 -2068.451553 -2253.524250 -2481.011764 -2686.390623 -2825.732057 -2884.643758 -2872.740084 -2809.963297 -2715.229026 -2601.760366 -2477.359887 -2346.362287 -2211.332323 -2074.037297 -1935.879281 -1798.052965 -1661.595049 -1527.399619 -1396.226086 -1268.707158 -1145.358178 -1026.587598 -912.708689 -803.959228 -700.575707 -603.475855 -521.108551 -473.570623 -450.425604 -441.546535 17457.618000 17914.509833 18911.272873 20044.141800 19609.331018 18985.211885 18665.330989 18340.750332 18229.618302 17795.165805 16980.237482 16427.851549 15608.504202 14649.922484 13729.207758 12728.910770 11606.731654 10318.557708 8961.535085 7505.597252 5629.181466 3419.521042 1473.838629 109.635938 -761.095133 -1338.702418 -1771.298094 -2131.545467 -2437.036316 -2673.562312 -2823.557368 -2885.219846 -2873.564141 -2810.513008 -2715.536588 -2601.929746 -2477.457753 -2346.419547 -2211.361586 -2074.044062 -1935.866779 -1798.023821 -1661.551774 -1527.344874 -1396.163284 -1268.642477 -1145.307186 -1026.596796 -912.924881 -804.845807 -703.545951 -612.209898 -537.452353 -486.863804 -458.815391 -447.415095 14867.533365 14808.450531 15624.979480 12834.137417 12104.038504 11332.905295 11764.337525 9413.397553 7697.668685 5953.177430 4120.925904 3554.116924 3732.044723 3837.383599 3578.711062 -1143.679901 -4162.406932 -3883.682425 -3967.305520 -4179.715446 -4376.067813 -4511.582943 -4574.012336 -4566.303193 -4498.200592 -4382.999103 -4238.101026 -4086.254852 14982.046577 16234.001214 19018.784950 14655.426492 14114.516693 16318.450056 15305.326129 15831.016813 12930.130017 14782.302148 15503.992559 15685.790441 13686.398040 10828.032503 14291.150033 14465.964267 10743.089626 15166.378415 14227.618135 12962.526000 14530.116205 15046.510010 14543.895149 14414.951000 8664.695680 14148.732867 4990.088655 4170.869575 15341.497813 14890.666076 14067.994625 10780.997602 13623.404507 13602.377664 12666.382175 12565.447563 13210.351208 12218.018361 12157.743026 11807.817868 15303.923649 13910.223630 12758.460353 15180.611603 6311.309242 10847.389760 15252.888259 12337.803704 11807.361829 15228.188922 12782.371066 14461.480580 15245.932692 8941.674853 9274.477193 9882.946398 15667.010700 13924.675751 9848.883124 12055.866833 15411.193079 10532.502629 11275.347730 12908.285611 13186.501550 7769.717074 2554.371386 6922.329088 13887.296657 10082.575723 13953.539532 14819.418146 11410.739722 11621.685578 13207.635708 12390.231871 11442.211153 5952.480827 8108.869856 10510.250680 12082.755295 8223.063605 15263.099512 6786.565901 15785.949384 15503.347155 13581.113902 14480.508939 9209.789276 10007.326434 12717.161333 2909.248059 13158.500662 6539.024026 10208.007808 13554.945259 15042.724990 15016.665270 2147.776152 10332.227305 14706.316657 10994.748151 7769.737200 12934.178301 3107.767747 9369.263572 13885.467073 3886.667161 4815.340320 4190.059128 -227.026645 6761.450460 16016.539721 16161.626440 15889.974417 14440.706829 15074.593172 13350.488084 13367.788495 14845.392247 11759.203549 6333.310114 8531.018787 9696.980282 7582.879332 5965.532146 5881.852087 12934.591438 10260.336624 8322.999078 13675.080502 13560.882701 6448.679856 8791.814960 12337.461256 12190.852159 11079.539441 6853.267265 3656.646565 5131.417685 16358.689620 15272.438908 13285.817941 14908.097943 10828.429294 13866.057474 5927.204645 6010.605520 11016.089891 11430.855038 10693.806391 13628.477067 13837.970098 11735.226441 11639.405547 7053.024975 5973.346755 8184.722403 7904.879514 11343.677210 3661.348229 10598.369388 12849.946461 7914.641897 3954.507856 8478.929709 3900.132649 1101.710815 16640.864707 15762.314229 13794.589050 11131.137499 12654.664700 13533.345330 13343.175553 12582.970490 12163.009480 12523.470509 9879.961922 12470.619930 4950.400593 7387.798765 11142.354229 12366.654668 8568.191570 7284.958930 2151.665794 4434.263360 12914.804917 9725.953010 4591.323910 2315.380621 7926.053365 2474.887999 2248.375567 97.696065 16830.859592 16631.389741 17011.796388 14473.163884 14298.312923 10351.123728 12392.049689 12135.486023 7857.110715 6172.198292 10942.745143 11800.227996 7852.079557 15284.539409 6653.417927 4441.396560 6849.648455 1738.163633 8488.264505 2158.731189 9028.139666 8194.287946 3449.448211 5885.018115 5598.468289 3077.995461 5451.034168 2985.822201 16955.063238 16430.029560 16473.696538 12168.194782 11486.195555 11370.245545 9894.629453 10409.329197 5864.358986 6562.487239 3170.244586 4689.145869 2844.922272 8239.866767 3527.478319 8232.540857 7474.600289 6335.672965 11996.375496 5035.076099 8488.175963 11406.465191 7359.935611 5240.395796 10524.231555 5434.437486 2772.901146 2528.353489 17034.400777 16281.063157 15692.951311 13450.407102 11441.986540 11494.584243 12658.944971 12661.008929 7638.866770 11381.761944 6195.645899 13584.195855 4918.919380 7832.619857 15020.118519 2693.345665 4226.953796 8577.527818 8053.649956 7371.046405 8201.877275 4839.761185 3815.873880 3972.187159 8875.228392 3085.178900 1623.017872 2514.710374 16888.456813 16581.641514 16048.953904 14088.238423 8640.437302 11839.600289 10475.625092 7535.290536 7524.408219 10057.337365 6286.691383 7785.421594 9359.189704 6961.700754 8855.638848 15710.118698 14020.499703 7999.757798 2793.599705 2761.286382 3468.930374 1883.955825 5007.586752 7848.938692 4928.280666 5030.642048 3052.396607 743.861189 16610.011034 15954.365254 15574.388065 11073.112695 11243.964791 13365.775767 11988.436933 8853.906654 12493.395414 9370.251225 8957.882838 4141.737358 10752.583897 3421.119406 6330.928043 8786.137054 9014.742407 2578.731907 7212.020734 6849.545351 8852.579260 7911.239885 5141.093787 6928.770246 10852.243034 10160.136372 4215.499732 4269.736705 16565.568171 15552.471512 13837.215531 12396.641468 14024.626977 6742.797124 13056.373153 11372.374660 5766.658334 14159.165405 12185.383439 2493.963273 9981.589139 3654.783606 5683.144585 2691.353634 2720.075610 5102.640564 13701.058774 6189.484665 9439.171261 1586.958511 10492.013526 8951.707507 5587.673243 11410.518851 1883.831051 2549.556798 16816.542354 16052.443207 13124.575200 14006.798406 15208.497995 9466.927074 12165.944153 11441.990381 7868.015261 13122.829683 9007.471933 6267.127817 5599.820340 3041.308228 2020.073525 1217.098986 3034.667143 3059.336440 1118.399538 4062.522021 1451.731950 4503.754732 1322.046668 3280.518690 425.828414 1774.234248 2052.627198 1050.849540 17004.069741 17073.823656 15057.006168 14738.615677 15549.694085 13392.461848 11166.454819 13310.045278 6379.055035 5178.402463 8710.584166 8154.063072 13625.640290 16906.750409 17734.279244 17469.794026 14500.506102 16936.652151 10937.660471 12040.699104 10222.792219 11899.863537 7458.017928 1559.036546 3563.724542 2008.318733 16819.457598 17450.707258 17311.515801 13736.112107 14013.510257 10134.765795 12480.764090 9603.654602 2937.619641 5754.322130 3441.507831 4194.450893 4679.884772 16979.143178 17564.631456 17465.343879 11532.507921 12772.270163 7662.619985 9886.715334 7494.495486 2886.020944 4091.994106 6600.029656 12110.647575 2755.017500 17002.880428 16699.083289 15310.205618 14569.534636 6953.207908 7084.014999 5052.423747 14086.299190 8807.070623 6951.054893 4623.852629 3327.286487 1067.007331 16706.095105 15737.822916 14040.919567 17217.031060 11934.347148 11014.743965 12501.833834 7468.711847 10157.849747 3519.398111 7640.423818 3893.194863 2097.461123 16404.395207 15982.512547 16165.852639 13637.132239 16970.203121 11473.040236 10058.388349 7978.487942 4961.981624 11192.008231 3886.261103 5643.206901 4266.941820 16235.114370 16325.617990 16346.482571 13941.878814 13753.073944 13852.553067 11362.214230 4174.689692 9203.775510 4274.497186 4687.946751 3984.663452 2445.794809 16132.629915 16046.398836 15231.513222 13309.521768 17650.201005 13752.534530 11615.309217 7765.425778 13874.125336 7850.706014 5988.513508 3234.663858 5090.878689 16160.096417 15759.183200 14160.326213 10987.443767 13417.282531 11425.981087 9224.822659 12887.792882 6740.070428 6369.293068 7316.740123 3872.649178 4573.721018 16105.336078 16567.871798 17201.895225 12940.318553 14788.284776 12539.811825 15693.021274 7464.849652 4790.833423 5825.504840 8510.948176 8110.660478 3959.166213 15835.025246 16098.444891 18741.224376 12721.983198 12280.259643 15411.756818 6346.323712 13490.305675 8408.194395 9491.629011 3343.693799 7813.736632 4762.111101 15659.526267 14906.273341 16045.790015 16024.648148 14694.821797 13675.825890 11645.304061 10234.590637 10191.426192 7889.729342 15176.019904 2557.069099 2675.786333 15747.350945 15133.514031 15371.074118 14104.325930 11314.300957 12527.241358 7288.843558 3538.800144 7107.654637 13767.711238 7551.593828 4907.038561 5886.078353 15989.780325 15697.142405 14918.008853 12067.516087 15593.512659 14662.462291 6065.285604 17089.354192 6371.491047 6717.027351 4016.741364 11327.018775 3596.061231 16285.351655 16218.382682 14774.547850 14646.190459 14746.954883 15337.284787 12842.989113 13633.427993 9952.275623 6689.339168 3357.842406 8752.259506 5102.836181 16427.615336 16733.109506 16273.294479 11721.498545 10928.375014 7756.378818 4751.652743 15188.061076 7258.842180 13242.666661 8275.640732 4429.417754 5905.050938 16427.791088 17657.894845 18854.473411 15906.261378 14225.983610 14492.473241 7943.163593 16720.758255 11915.786368 10363.976754 6462.036816 4219.856361 7555.467963 16705.232362 17239.319391 18578.261170 16966.990961 10639.756955 15289.672799 12819.923751 10215.243887 8537.131021 5515.665127 10485.276169 9599.828738 5507.217918 17069.048361 15894.738108 14251.304740 15217.895076 15944.989790 9691.072261 7732.956834 12808.660279 6577.518669 15553.795027 4044.946290 2846.165859 3696.050621 17185.805994 15977.071469 14871.295371 14951.438637 17055.955738 6568.237351 10100.188539 8960.230913 12552.455834 4310.750796 5544.537252 8127.420294 2519.964780 17143.526027 17648.284386 18439.288024 16866.402611 13330.883321 16161.184542 12107.103464 13780.759865 8971.315241 6147.985238 9170.923801 5379.608727 3074.403502 17144.282679 18087.439533 19273.410576 18157.497792 17604.354615 14348.293022 13952.091468 14122.238662 9633.050550 12412.461160 3589.352264 2719.185620 4523.974508 17176.812420 16507.777473 15200.306472 15985.436824 18041.673580 16073.277642 13275.532025 14754.264170 17340.794208 12953.389320 8830.826755 4928.410867 3521.353718 17173.547808 16482.425255 15037.955580 13618.083827 17246.107115 17812.018785 11875.085427 14936.814811 14746.557803 5384.427864 7251.049871 6877.081719 3094.193086 17236.811356 16672.740213 16101.870819 18299.747601 15731.422046 9218.308536 15569.956723 14574.749888 15727.272857 3783.725833 8055.775027 6480.490926 11107.696925 17458.018651 16157.413833 13778.105879 10594.868509 16264.034761 15821.362888 9430.744326 12305.024602 8559.893918 8256.569497 8216.469143 5382.047600 13666.127271 17609.969569 17261.330531 17058.259419 14198.616006 10082.935281 9204.833252 10441.547671 7312.666111 8944.813155 8240.740778 3671.439969 11477.319100 3528.534983 17571.146422 18375.879311 19867.715495 15270.661368 15083.589341 12026.246692 8154.834810 17968.360278 10380.247087 4274.715665 4917.855654 6217.912892 3141.211375 17666.584926 18403.119922 19594.439915 16757.561063 15119.945479 14206.972908 14867.470868 16081.984721 16452.398482 12000.732769 8901.249289 5546.967854 3409.560545 17865.916054 18284.247021 18920.395237 16662.596505 14673.780577 15150.465726 14954.056479 13320.506028 6166.457718 6019.875993 6920.941953 7265.617376 7261.368615 17990.206441 19144.204478 20953.810045 18213.517474 14957.302715 12501.915984 15485.393682 8996.338697 6825.125948 9847.964713 6199.154305 8757.262636 4806.665134 18138.631010 18380.431695 18383.309920 18141.378053 19485.887479 10871.265635 5171.941470 3184.524172 6314.278383 6744.162793 11035.896898 9039.223706 5544.230992 18264.319013 18007.180864 16182.485250 18434.773146 17940.644807 17400.117295 14596.141909 16161.828841 14227.516037 8587.732501 2784.772320 4982.185114 4927.970457 18202.005765 18510.076291 16699.902009 16578.029353 17119.428524 18646.255542 12526.268017 13922.011204 6176.892213 5590.002004 6281.013379 7480.347388 7946.754340 18105.970630 17840.807925 16181.009181 18987.843814 12111.939728 18533.547688 18764.631269 11372.472917 12140.060301 8261.907693 8167.551517 6691.666528 4266.390538 18298.972539 18483.250288 17523.693921 18603.667745 15430.981436 17034.182793 10497.933315 6107.962708 4787.869582 12025.480061 5229.623750 2338.478369 5996.254207 18672.437602 19530.568727 20353.352117 17102.719551 17664.749517 11529.741719 15348.615487 9596.103502 9483.320387 9972.983238 10761.882434 10753.352526 6637.994381 18894.766669 19187.737626 19106.954978 20502.592321 17239.037784 16935.607072 10928.629969 17952.862627 15837.941450 3069.800575 12652.621452 5564.506808 1626.138749 18965.834453 19330.488912 19527.400951 20951.598682 17521.012986 17996.977848 16797.428608 14897.898932 4954.709822 9981.898836 7546.878703 16431.845393 5757.832424 19137.185919 19447.677306 20082.973577 17338.650341 17560.506890 15692.009299 14779.805299 10709.352578 9202.788452 12701.463380 8900.644385 9652.067775 2981.192928 19504.543098 19835.961367 20019.120131 21576.614062 20735.104334 18878.093857 13920.089069 9420.381169 17575.221377 12962.104516 9485.952732 5365.449160 5214.426213 19784.839992 20662.433440 20972.529453 20125.016734 20404.591609 21308.278729 13948.803403 14106.395990 12522.264895 10379.766296 14273.450328 16757.849822 3656.724032 19974.334552 21545.565852 22241.157513 21820.185943 16583.200143 7296.424661 16646.215002 12619.539761 12700.776252 11303.725639 8764.811323 4105.562498 3454.221645 20148.316788 20661.904841 19829.438591 20284.290601 20132.654356 17814.606056 13337.263437 21774.394854 11192.529233 911.970041 8805.330460 12874.310989 1077.620108 20345.170869 21234.049798 21144.023886 16780.436338 16550.568447 15282.467861 15081.565195 11679.622787 5663.458690 19326.465260 13707.668780 5903.995596 7823.615552 20431.957330 21281.532838 21591.485196 16702.635287 18087.987600 17522.511789 14962.479040 13786.948982 8573.260053 5495.235441 10115.433184 3699.762904 7262.860560 20375.314117 20609.574318 20809.115121 20749.524993 15355.056036 17432.647768 14055.094923 10614.007788 9568.459491 11786.929492 7749.393711 12702.034936 5848.247730 20327.743299 20420.993738 21576.571088 19608.990400 17999.754093 17340.553028 15633.556478 12370.002270 8229.306776 10121.184038 5092.472069 9658.888847 1243.966519 20466.846831 21274.569357 22543.619893 20668.018889 19157.550069 14973.156768 13990.869476 18317.218094 14474.507051 17000.891156 15280.379912 5707.401175 2009.243125 20674.738970 21239.928061 21519.987533 19933.704524 18074.598340 21320.652812 8167.207547 13037.757742 14299.446356 4523.109377 10695.834420 8939.922822 6816.598264 20703.188788 20228.212853 20220.413934 23495.535593 21156.842017 17060.994806 13618.863961 10858.801559 14819.358193 9936.631287 7380.897982 10156.956789 2515.328687 20629.872162 20496.733596 20045.887209 21392.366366 22087.899372 4770.488195 15325.864719 14763.144000 14888.437815 9925.147561 10331.462403 8506.378697 4998.193035 20769.732252 22251.715080 22610.408556 23751.820132 18959.847071 21909.762463 11418.225196 14937.507284 21788.011173 9837.499555 15567.640687 13249.373260 4026.851312 21196.148600 22397.264537 22822.636311 21235.599047 20220.980541 12950.793293 12987.946884 11637.004113 11525.173043 12070.479595 8189.141382 15527.714018 1499.574158 21535.584601 22343.746961 24900.717235 25226.783326 21114.936724 16293.743656 19446.618714 19407.701828 12008.003942 17916.415300 10940.643997 3452.802876 2573.285366 21634.479613 22533.230905 25535.841889 18459.361234 16472.789642 18510.819709 14294.817789 14100.353251 13967.877971 7146.124110 8110.694280 4314.549118 18780.147506 21577.271897 22081.607106 25431.333870 22684.600537 17655.207942 19204.341692 21399.394144 18556.185826 16988.844613 20401.703004 16120.998834 7166.893849 -2455.806088 21308.191559 20579.698861 20560.107608 18726.913504 16168.480168 15594.892291 14324.149497 18771.772044 14727.916851 13672.901687 9263.916093 3081.693412 4452.333540 21236.496535 21100.167376 20066.939596 22983.949589 20909.126784 19895.824235 19916.328409 17322.276326 18098.628780 14589.114868 10350.898810 11043.885372 8522.474162 21551.810941 22018.225018 19785.801207 21613.129791 11844.785480 20551.878032 21127.003062 5926.353040 11147.282605 7363.062204 9423.648081 15072.163212 13895.937177 21875.828735 21955.866416 19312.268459 11553.139394 20960.167869 20106.706693 22257.744841 12354.244804 19709.319709 17284.492496 13102.175963 6700.240797 692.775816 21740.340339 22564.182017 21479.905706 22282.386651 16552.148391 16525.803542 17307.771981 21377.556092 18252.237203 20486.714710 6248.350504 9077.185124 15065.589612 21573.340087 23694.900826 24876.959975 19355.046922 21686.262308 16066.648888 16007.019145 21383.483319 13320.982210 8187.327288 16021.313412 3130.685783 9970.328686 21829.160508 23446.468158 23380.788275 21035.020219 18661.193755 16189.506200 9260.131215 19345.580844 13850.332149 16583.630677 9600.054467 7455.902793 11892.341010 21922.108724 20493.303102 18346.981787 22166.825996 19277.698117 16682.934771 16158.773822 15854.459904 14055.155321 13283.114679 11423.760583 4164.124106 4841.815438 21644.039001 22031.346073 24711.268132 18880.076892 18395.210287 16001.632544 24122.804136 19572.568108 14273.086538 19078.595206 20127.288493 4031.788497 1124.506670 21676.613756 24329.427396 28957.169349 19285.151847 22591.113435 17591.427820 22072.869759 18501.756259 10710.238147 19550.165946 11660.974497 11460.015682 6431.493848 22061.666959 21899.280425 23820.428005 16750.379858 12906.889545 22108.258752 21484.683881 -3058.469034 19984.870797 17501.735088 14292.722294 13757.018095 1815.037639 22039.724278 21711.816647 24619.978968 20841.026259 20287.164287 12756.023669 22796.929322 15662.646484 17323.837469 21561.837599 17691.400371 10767.300735 1672.322344 22068.088720 23125.959312 27692.885103 18590.448189 19448.287883 15957.943994 15533.131270 13006.773785 18407.185469 18515.457650 7179.085722 18175.899396 -2510.404602 22578.374039 23588.306390 21628.733426 22054.894460 16634.587015 13881.064518 21973.160645 15678.019556 21867.929058 18774.834099 11755.732645 5856.810724 13162.639572 22976.859008 25187.526086 24774.203463 18522.215731 18494.638856 17321.247839 20037.435474 24778.996727 20201.053875 14708.577144 23766.884010 17529.257748 2353.401467 22720.936802 23269.916203 23915.747057 20694.636311 19666.581389 19314.558739 23788.567206 15404.413587 18091.158072 20059.344978 13375.255425 11763.633088 3361.330475 22594.502543 25226.213654 26124.059814 21582.334135 17652.863614 17542.901159 17417.825648 18554.900585 22947.610448 13489.168558 9196.786305 13866.820148 6890.208833 23128.964495 25732.014235 24797.325509 16365.358302 18390.413530 18423.130204 19559.354331 11615.594189 8536.435182 18268.648585 17537.952743 7936.911782 8110.587063 23254.466164 24835.171743 22526.033084 19524.232135 21573.959340 14564.335561 13297.557470 22616.680323 19951.196072 16403.268377 17298.748277 13896.625549 13660.135057 22996.921104 27972.291282 34025.135015 20594.180258 22076.323058 9257.348586 17017.670181 17534.882037 11413.920968 18585.483058 18945.720310 21609.398564 5910.842686 20945.022902 21303.190196 23565.784237 17185.615345 17616.887731 17489.184476 23670.213973 10388.991614 31162.073445 5553.881010 11609.499162 5390.790763 1472.132334 19023.135657 22164.320383 26506.174753 10660.827432 22803.366541 16805.931440 27031.967686 11317.984684 16857.302311 26075.404862 12522.611121 10965.866156 4519.814611 18780.882150 24167.164295 21983.428516 19478.489360 22782.777994 23857.538518 15983.545464 14701.909084 11319.889916 20500.307079 10319.179579 9191.313604 8908.121365 18272.660761 27155.592654 27987.183726 18915.996930 23492.552586 16189.923411 20947.032868 19002.939014 15370.536641 6685.349966 24118.011677 20097.426746 26718.809401 17113.340820 19982.275663 20458.659095 17781.093840 19094.337105 25272.754805 21809.512083 22625.059809 18556.868504 24952.866324 18183.452036 18324.445606 7783.302576 16901.263050 13197.750823 5601.685793 20716.286971 24599.965291 20016.429865 13889.371385 19613.981980 25085.829644 20699.148051 19746.090434 21534.196987 22585.536701 17155.918523 18980.396946 21739.933672 20695.988163 13821.390218 15951.464395 21192.805865 14953.601846 18995.973369 19387.671993 11409.747998 22341.321415 20535.465141 17314.748005 18066.032115 20031.363842 20117.761404 20346.940057 21589.983553 20752.528533 19849.269944 17980.058156 21953.536553 22119.455255 23800.879590 18765.930776
</DataArray>
<DataArray type="Float64" Name="Velocity" NumberOfComponents="3" format="ascii">