<VTKFile type="PolyData">
<PolyData>
<Piece NumberOfPoints="2177" NumberOfVerts="2177" NumberOfLines="0" NumberOfStrips="0" NumberOfPolys="0">
<PointData>
<DataArray type="Float64" Name="Pressure" format="ascii">
 14192.327416 14120.415960 13877.058586 13368.282807 12606.252313 11637.980487 10527.933573 9253.149050 7772.812385 6114.739843 4300.256089 2403.344688 770.137315 -222.760686 -510.832959 -295.750706 61.166448 42.161431 -519.649543 -1014.051249 -1092.819361 -1180.377557 -1787.752120 -2696.710941 -3315.603810 -3525.476468 -3480.007588 -3302.381854 -3048.875075 -2752.773373 -2444.751678 -2144.592475 -1861.626159 -1599.747107 -1360.427603 -1144.106423 -950.750325 -780.034958 -631.359783 -503.812558 -396.146637 -306.798509 -233.948001 -175.608874 -129.732156 -94.305468 -67.436046 -47.410815 -32.732253 -22.133898 -14.585571 -9.302482 -5.751983 -3.568438 -2.398234 -1.922504 14555.887532 14688.441250 14699.272436 14282.765346 13548.084692 12384.803307 11182.983423 10024.620738 8548.815174 6840.247905 4829.792605 2403.628138 524.873609 -213.299738 -221.940798 91.340112 675.713898 797.231895 -655.905326 -1460.755917 -1040.692052 -585.509579 -1552.348085 -3118.214154 -3640.153565 -3713.204661 -3578.398410 -3365.782224 -3088.793617 -2769.953299 -2451.117251 -2146.938742 -1862.648157 -1600.342773 -1360.884592 -1144.514687 -951.136457 -780.404603 -631.711214 -504.141504 -396.448433 -307.069285 -234.185318 -175.811963 -129.901837 -94.443831 -67.545930 -47.494927 -32.791202 -22.160793 -14.550801 -9.146846 -5.442875 -3.299546 -2.238695 -1.828943 15157.746888 15551.848418 15292.051103 14694.912522 14857.429809 13063.625752 11081.509942 10502.989494 8956.419061 7647.156246 6249.619238 1254.156466 -1285.196123 -418.707681 925.182824 818.521760 1942.535588 2547.753081 -1239.989772 -2686.022597 -912.963846 882.784973 -1068.448205 -4215.409902 -4277.268986 -3959.225329 -3702.653987 -3467.551445 -3169.789863 -2793.977930 -2457.589472 -2148.650450 -1862.906043 -1600.150524 -1360.554628 -1144.146393 -950.762896 -780.038909 -631.361023 -503.812947 -396.146757 -306.798545 -233.948006 -175.608854 -129.732074 -94.305174 -67.435010 -47.407176 -32.719495 -22.089182 -14.431232 -8.725928 -4.599740 -2.740963 -1.966299 -1.674040 -2.741311 -1.964343 -1.619139 -1.651975 -1.396295 -1.232016 -0.925028 -0.866010 -0.809105 -0.538479 -0.523292 -0.505124 -0.314177 -0.310652 -0.304669 -0.182082 -0.181518 -0.179375 -0.104335 -0.104434 -0.103566 -0.058986 -0.059167 -0.058769 -0.032871 -0.033010 -0.032809 -0.018047 -0.018137 -0.018030 -0.009761 -0.009814 -0.009756 -0.005199 -0.005230 -0.005198 -0.002728 -0.002745 -0.002728 -0.001410 -0.001419 -0.001410 -0.000718 -0.000722 -0.000718 -0.000360 -0.000362 -0.000360 -0.000178 -0.000179 -0.000178 -0.000086 -0.000087 -0.000086 -0.000041 -0.000042 -0.000041 -0.000020 -0.000020 -0.000020 -0.000009 -0.000009 -0.000009 -0.000004 -0.000004 -0.000004 -0.000002 -0.000002 -0.000002 -0.000001 -0.000001 -0.000001 -0.000000 -0.000000 -0.000000 -0.000000 -0.000000 -0.000000 -0.000000 -0.000000 -0.000000 -0.000000 -0.000000 -0.000000 -0.000000 -0.000000 -0.000000 -0.000000 -0.000000 -0.000000 -0.000000 -0.000000 -0.000000 -0.000000 -0.000000 -0.000000 -0.000000 -0.000000 -0.000000 -0.000000 -0.000000 -0.000000 -0.000000 -0.000000 -0.000000 -0.000000 -0.000000 -0.000000 -0.000000 -0.000000 -0.000000 -0.000000 -0.000000 -0.000000 -0.000000 -0.000000 -0.000000 -0.000000 -0.000000 -0.000000 -0.000000 -0.000000 -0.000000 -0.000000 -0.000000 -0.000000 -0.000000 -0.000000 -0.000000 -0.000000 -0.000000 -0.000000 -0.000000 -0.000000 -0.000000 -0.000000 -0.000000 -0.000000 -0.000000 -0.000000 -0.000000 -0.000000 -0.000000 -0.000000 -0.000000 -0.000000 -0.000000 -0.000000 -0.000000 -0.000000 -0.000000 -0.000000 -0.000000 -0.000000 -0.000000 -0.000000 -0.000000 -0.000000 -0.000000 -0.000000 -0.000000 -0.000000 -0.000000 -0.000000 -0.000000 -0.000000 -0.000000 -0.000000 -0.000000 -0.000000 -0.000000 -0.000000 -0.000000 -0.000000 -0.000000 -0.000000 -0.000000 -0.000000 -0.000000 -0.000000 -0.000000 -0.000000 -0.000000 -0.000000 -0.000000 -0.000000 -0.000000 -0.000000 -0.000000 -0.000000 -0.000000 -0.000000 -0.000000 -0.000000 -0.000000 -0.000000 -0.000000 -0.000000 -0.000000 -0.000000 -0.000000 -0.000000 -0.000000 -0.000000 0.000000 0.000000 0.000000 0.000000 0.000000 0.000000 0.000000 0.000000 0.000000 0.000000 0.000000 0.000000 0.000000 0.000000 0.000000 0.000001 0.000001 0.000001 0.000002 0.000002 0.000002 0.000008 0.000008 0.000008 0.000025 0.000025 0.000025 0.000076 0.000077 0.000076 0.000222 0.000225 0.000222 0.000622 0.000631 0.000622 0.001672 0.001693 0.001672 0.004301 0.004352 0.004301 0.010592 0.010706 0.010592 0.024950 0.025193 0.024951 0.056178 0.056669 0.056178 0.120791 0.121728 0.120792 0.247733 0.249411 0.247738 0.483935 0.486744 0.483953 0.898726 0.903082 0.898793 1.582727 1.588904 1.582960 2.633814 2.641668 2.634598 4.120043 4.128754 4.122626 6.009120 6.017470 6.017503 8.058573 8.067359 8.085479 9.671798 9.693167 9.757469 9.739542 9.827781 10.010833 6.489222 6.839792 7.345254 -2.685883 -1.409392 0.006936 -21.815594 -17.212354 -13.310926 -56.870986 -40.258901 -30.998920 -82.687909 -54.151025 -40.014865 10956.937709 11005.428670 8657.657652 8531.168035 11311.886548 7941.614755 9810.028679 12150.839871 6631.580203 5055.953790 3160.472832 3708.195036 7873.929952 413.475926 3775.787458 1446.286549 -2923.218109 -3835.527135 -4025.360419 -4134.561222 -4252.925992 -4365.871272 -4464.309322 -4552.997459 -4638.082413 -4718.150152 -4782.876155 -4816.281796 -4801.228880 -4723.321178 -4573.605571 -4350.026714 -4057.758349 -3708.570895 -3319.419279 -2910.472776 -2502.848312 -2116.334779 -1767.394789 -1467.688706 -1223.275725 -1034.521925 -896.627082 -800.618900 -734.671554 -685.647949 -640.775132 -589.298881 -523.847912 -441.118133 -341.432513 -223.885195 -115.824222 -68.859648 -46.922812 -37.276467 10950.627040 11232.779978 12363.009966 13501.487204 13064.767143 8956.962163 7629.035563 7938.479735 6582.902955 4931.075401 3380.909523 2203.711304 1183.895188 -899.702530 -1091.691669 -2036.581064 -3340.203680 -3850.976063 -4005.423418 -4122.520273 -4246.888924 -4362.647802 -4462.366287 -4551.629676 -4636.897947 -4716.913306 -4781.468870 -4814.681587 -4799.483980 -4721.525116 -4571.873894 -4348.476694 -4056.492067 -3707.662348 -3318.906281 -2910.354057 -2503.085697 -2116.859800 -1768.118618 -1468.513695 -1224.106534 -1035.274515 -897.234954 -801.037386 -734.881749 -685.661917 -640.645125 -589.141146 -523.920805 -442.100366 -345.319324 -239.788047 -142.629628 -83.850786 -53.436217 -40.628192 10970.737385 11031.824620 10944.125752 10671.891876 10423.466334 9554.940009 8764.538812 8259.276876 6763.044667 4891.518427 3133.266289 1280.473548 -718.907745 -2136.666189 -2646.908788 -3140.448398 -3609.801709 -3852.264704 -3983.477694 -4109.895479 -4241.306748 -4360.076746 -4460.749702 -4550.299252 -4635.789456 -4716.121623 -4781.068980 -4814.682039 -4799.830016 -4722.115900 -4572.582380 -4349.169142 -4057.045895 -3707.980850 -3318.928785 -2910.060616 -2502.496209 -2116.028128 -1767.122861 -1467.444411 -1223.055029 -1034.323087 -896.449925 -800.464532 -734.543464 -685.557068 -640.756813 -589.466954 -524.565181 -443.539637 -349.128315 -250.064190 -160.954760 -96.855791 -59.381244 -43.240472 15484.832434 15575.767051 14276.238584 13243.692066 13694.440349 11815.050441 10011.015643 9889.523686 7982.287636 7623.058359 8286.364416 688.383453 -1217.327929 2121.483487 4304.560063 1262.743361 2408.029706 3127.335629 -1552.171540 -3243.341855 -881.666778 1455.386771 -797.389422 -4514.455243 -4492.391651 -4032.583099 -3739.776414 -3512.813017 16015.607478 15880.261729 14385.376244 16290.974564 15923.780562 16510.645765 17398.040423 14454.232421 15525.562113 19574.723041 20140.869830 11620.311195 18644.437924 8844.036917 16941.938659 20128.485395 13783.524483 13101.438436 15359.511568 18267.410260 16411.354473 16173.563181 12866.351128 18483.141690 11761.910458 13312.708890 81.464481 -1327.323239 16231.575598 16668.259716 17036.905474 13760.605725 13514.996301 16551.321173 14437.952869 6453.758336 13663.271518 17786.499151 9996.766022 19193.054275 11000.351831 17032.544597 14903.046264 14521.282329 2014.235019 13430.372692 12985.892943 15037.888049 11662.170012 16285.233946 13428.844342 11436.273546 16993.738884 7836.471585 7765.819978 9704.242276 16419.491330 17719.656666 19250.660139 9640.145184 22529.250801 9412.906546 9044.254672 14827.035549 13323.280005 15256.031122 6607.242385 6618.549284 10996.135776 1958.817733 16039.967101 5959.754951 9185.346245 14091.722097 6533.554253 7856.698020 11024.105309 3287.017143 9455.137615 13809.203009 8675.816019 2140.463409 11311.926755 2019.398033 17017.978885 17000.608505 17984.552733 17977.645739 14893.352319 12914.762144 12739.297518 10786.108206 19127.008872 7861.959240 16299.955278 12445.327896 7722.631673 12519.403961 5156.956764 11378.986235 22885.583126 8100.833792 6530.981447 9565.233466 3142.098455 6890.549264 9378.000887 6506.990756 9272.994418 6280.238483 79.419866 2995.888934 17782.842399 16997.395543 16796.343720 16442.126641 22260.358378 19617.614002 25571.065346 16320.411784 17960.552529 11918.425961 11168.803780 12413.987716 18996.550174 8180.991133 13766.900267 17254.565975 3171.031959 12937.263086 10014.350623 8463.594728 3902.644519 19890.539570 7563.058455 9735.158932 3797.439443 7432.767441 2553.713660 4958.718889 18428.094337 18517.136614 17950.669079 18743.826043 19859.748054 22476.573552 10098.820366 7635.071438 10632.483573 17549.167036 20281.864768 18024.334925 22303.185742 17541.220413 21337.589475 14078.912249 11334.124445 16704.000133 5096.599615 14293.222134 -316.444257 10501.993509 10237.630948 7280.996751 8379.222841 2543.806305 6858.057018 2769.731069 18766.626066 18448.377872 16287.577626 24471.129173 22332.800710 22022.512536 17488.044035 21210.865616 16977.244342 18200.279387 12253.832648 15539.159600 13777.459479 14732.687393 18723.025517 16794.446786 8778.881707 10090.797900 5970.586027 8341.961945 11930.797093 8501.733072 8492.827603 1403.457427 7247.622412 8358.322908 5132.918830 573.861223 18906.324506 18764.928015 16364.706739 23714.975388 24506.276622 23237.870901 23816.408446 20093.010031 17977.871267 10843.537666 12942.259960 22277.037955 19584.717309 20462.857465 5979.743529 4736.687522 7547.722570 7556.713444 15228.894893 4646.104846 17902.445234 8703.295117 3717.291095 6786.590093 8154.388746 8281.578639 6759.164410 970.254524 18978.848668 19281.658370 19708.475325 23185.850692 23014.850825 17032.975230 18515.136366 16637.943270 9726.845888 17193.604376 11316.088187 12200.055582 7033.019676 5452.119805 3823.886106 11005.091470 8543.935104 8362.520231 7410.223424 6268.343234 8420.782152 7205.950851 8477.935001 4015.077167 8816.805528 -489.103613 4005.278726 -440.243728 19342.175210 20192.537076 21398.773168 23647.875617 22607.646067 20922.019185 20466.682474 21505.157523 10042.108768 18767.116179 9776.935167 12060.244000 4331.002739 9693.438172 13500.256351 9346.656138 3219.879847 7957.146726 13843.617515 4555.512989 7874.476647 2277.202546 4332.979895 10383.622386 13181.834011 3426.110159 786.912431 930.616796 19643.890071 20615.119088 22452.876065 18973.392758 16097.095157 19490.756128 22771.466474 20839.870042 8030.298323 15661.418452 10384.046001 10716.295266 17231.310462 11784.434441 7679.672458 17264.302595 16963.057809 13970.849285 632.669906 4979.074367 1095.427915 2977.209888 6366.229596 13598.320924 7015.742360 2186.522284 3513.951374 978.706499 19438.524127 18594.243726 18317.066556 22673.660840 16552.046965 17854.171413 20759.615568 13089.209812 17171.741859 10713.985939 13227.660160 6703.684751 13502.046365 6896.220129 11757.045096 5860.552505 3689.225158 966.215558 4859.555902 7367.527921 4709.400386 4884.862906 6471.578196 3121.899322 11234.450114 13076.280859 1566.393335 4196.534865 19540.650840 21438.577641 23455.626807 21364.452602 17898.235047 18278.187848 17017.326433 19712.822036 16315.500513 17213.849742 18113.139475 4595.473564 7889.726772 2198.900253 4407.922791 3428.243931 10422.157796 1385.104766 8131.055820 7206.495603 8510.981807 704.836079 14599.045496 5615.985684 7503.682579 7947.021313 4043.256950 802.756409 20087.318248 21774.122352 27599.684206 25219.688294 24728.049587 20989.899032 12443.646751 19276.534807 7654.536837 11017.271764 17855.650887 2959.334367 3504.733973 505.100386 2133.931062 597.584949 1144.584972 979.717857 673.631433 2115.003125 370.965157 980.766587 1773.028620 2098.845874 5057.809816 2936.854497 3471.122028 -1448.657192 20575.699351 20678.171040 23546.875381 20892.921509 24063.882035 24948.030753 14983.332796 13250.146575 10976.295273 6394.198832 5089.264094 4141.397693 5533.343943 20881.114928 21103.380095 22844.654434 18817.392400 23150.104173 10191.571291 20781.904430 14712.982121 7693.509268 10835.434389 957.407727 1344.593450 489.549214 20896.806177 21306.263831 23855.902356 16900.766868 17594.362724 21974.670566 11621.665531 10339.846958 1981.470277 3195.695802 3651.726725 1504.716118 1170.754899 21006.721505 23017.061956 24455.150420 18126.225296 20756.257115 11610.086588 16031.071468 9574.001045 6268.125832 4225.948061 10757.012239 8540.259215 175.384121 21003.370242 22034.032006 23975.944745 22844.024025 7525.095239 11913.338161 8911.870965 11527.203818 7660.075776 5225.618443 1727.358479 241.679961 2193.350186 20856.154722 22380.557270 24265.297380 22509.977318 12603.872320 13912.768947 17889.956822 5721.575547 8307.231758 2268.067762 5571.195433 1475.927498 749.279606 20684.031110 22098.715690 23961.035494 22147.206258 22472.883062 16883.708337 14250.817403 14600.919876 6389.250867 8433.604995 8708.615326 4734.715723 631.820146 20671.705038 23058.930880 24544.844972 22149.828580 22510.491106 12820.269409 16882.716844 2423.642725 10516.440355 -330.879435 4310.181592 1336.972042 2829.441471 20722.497077 21221.795290 20040.890730 21913.028995 23238.026521 17267.038883 15765.785236 7449.817196 12410.171425 -220.561165 5103.382386 108.410794 2308.130539 20671.687834 18133.320074 16459.380749 18497.032042 17896.992766 15314.022268 10021.210443 13634.651410 6895.630504 4684.560267 7594.805487 5967.964520 2770.124563 21037.636985 22892.742610 24414.887812 21742.971040 18150.979765 15528.828443 21748.316676 2118.174968 6136.375160 3192.118044 3690.004831 4313.130384 2595.547582 22104.167163 23874.680827 25459.491873 24232.625404 15757.448238 14337.429800 10216.351096 4358.217487 11020.311393 9812.666484 5424.920425 11223.121923 1387.623180 23041.464307 22549.982855 19518.345150 22701.206403 22903.359969 21273.385850 19675.984424 11325.667557 8131.187363 2048.206630 6622.688998 -1433.436067 2023.018135 23553.023366 22714.276292 21136.114555 16060.959266 12671.378980 12046.917698 10103.113308 3074.117293 3759.037898 12936.234986 7312.004824 3661.210154 1687.258274 23459.649069 25037.940339 25899.529273 21606.678531 18086.743393 15885.144789 8676.140091 16701.548719 4033.998071 5433.250243 8563.259777 13091.813027 4103.085227 23129.055265 24561.348628 26689.731558 22499.288209 15615.227106 20386.425999 16866.992406 12082.707497 6089.571796 4760.619325 5529.097074 6578.721288 2258.956289 22702.953090 21709.827051 24823.824400 14437.866981 12522.961230 11560.981424 10925.998988 13606.824275 7081.122250 10368.584786 7710.988817 5366.385541 2513.632717 22784.661299 24156.971255 22148.709664 22461.781684 14693.818373 17526.881927 7453.199040 16579.768050 12179.047900 10398.493836 8506.742742 467.499606 999.693330 23544.701040 27299.613154 27974.231763 21239.975519 17880.053874 12779.812330 17612.060347 16327.364924 4451.451060 3946.481471 10761.088442 7016.335872 2720.759322 23827.099351 24649.303630 24033.857824 21282.701288 23389.750598 13161.624648 5928.023285 9932.615443 2114.064431 12891.309818 12290.053797 6933.257920 2100.844285 23360.465782 25336.665277 27091.092736 20616.208742 16762.029628 13931.399718 13286.314472 15423.905453 18339.427168 9513.797630 8311.928977 2754.587209 1522.875304 22637.105882 21361.232273 19104.043882 23575.763565 26352.456899 21998.121142 15586.808938 21735.530766 11783.007943 14771.344988 7665.720084 10523.585817 2609.821128 22543.731811 24024.882590 22558.344733 21818.847273 21151.586578 13002.622489 18576.612676 11300.339264 8311.337709 13478.741886 4614.187813 1133.877919 1986.991310 23037.527823 22955.570499 22818.538519 20349.020275 23610.945178 17514.041398 18552.203058 17979.969891 17820.486441 18740.094201 12829.965597 5403.497417 282.571896 23096.540710 21918.089161 23092.255178 19463.709443 22960.440450 21002.510189 16705.552279 15858.845856 15026.709481 9403.187440 5377.538629 6062.630987 4522.896326 22752.468616 19403.112785 23323.253897 24817.223899 18674.121123 15745.064416 20220.856374 15127.427171 16207.782102 3349.380718 5901.984344 4110.331640 4842.651192 22293.498987 19169.839713 18239.935325 17194.198795 19224.098416 15870.396264 16569.617372 9822.731906 13186.529465 11619.154664 6702.066497 1895.448172 253.991312 22758.603537 22712.385604 21362.416742 23685.691740 20902.368037 18021.363255 15546.521047 12927.746319 13749.044676 11955.759414 5372.839944 8981.606063 1508.095509 23408.718830 23354.386838 22298.553763 23867.626678 20856.413788 18724.347205 18082.173680 18772.206108 15263.880729 7322.263950 10848.450600 3977.248872 641.305421 23792.325682 25548.180598 28106.699777 26634.806174 27559.546864 20529.157420 20389.848628 19345.722472 19061.133025 8669.058338 4909.069590 5225.197630 974.459441 23742.056380 24737.987204 28524.167782 20737.457437 21419.944209 20980.437052 22514.908789 14312.509137 4798.609015 7910.291354 3936.999196 2643.369786 6649.376389 23439.600546 21848.463180 22976.137273 23711.395948 25738.021835 22397.081828 13839.605186 16613.141591 6514.293376 10897.466213 8905.556302 5251.892697 1741.640621 23255.310638 22221.694455 19296.900341 21827.338360 23692.125733 17785.868425 8551.180943 6634.021095 7045.864982 9252.359773 12669.622491 5827.563564 7.503815 23389.941455 23465.433351 23592.182993 23509.773400 20802.067502 20192.886423 18548.114220 12882.021161 9518.754166 15835.533890 2716.562366 3241.755465 1779.122911 23431.450678 23404.543847 24102.482972 28538.521906 22807.582131 22209.727371 18897.312970 13336.060822 9178.090014 3900.346853 6830.336571 4423.288496 1970.098854 23300.029700 23340.565417 24012.517860 23201.650544 21439.432961 18981.002943 23578.311089 12123.546109 11337.137042 13795.387581 8058.152600 2022.508606 10807.170859 23173.367172 23685.365023 22970.155110 24333.015748 23578.960913 16219.833826 13561.421408 11151.837595 6375.858822 8357.997161 7366.340041 1033.648668 1967.471427 23074.419480 24241.388581 22769.708780 22759.663115 21334.063410 15702.261880 17900.292310 5464.327123 14243.857055 13882.438065 5264.938612 4120.445809 4536.858496 22843.402056 22867.997506 23321.794036 24945.087929 21219.841088 21574.539465 19944.843295 18787.912812 20721.000226 9353.155724 7964.251087 9332.843248 1029.476104 22419.451815 21495.657965 22899.258854 22195.572253 23655.818589 22041.983533 17505.163400 14370.702784 7639.381155 10777.622251 10037.528463 5959.425713 3784.409112 22159.142136 21458.353500 21300.688823 21105.836017 18563.981349 21313.144318 17858.901097 17477.088023 12865.998258 9944.987862 7909.303751 846.821154 5141.117839 21976.572094 21210.470310 20332.750695 23164.429617 21827.103871 20150.529839 18464.492258 9175.424924 12109.837156 9468.819509 7334.019479 1514.498952 2019.959260 21795.005618 21789.268965 21018.904727 22894.836951 22590.631188 18461.510452 18874.203919 11762.100034 17334.394278 3015.167594 11560.280913 7346.925425 1542.106397 21306.205493 22243.982086 26068.386730 21457.214306 22433.409651 13952.582978 17842.484664 19382.037075 9513.279303 2060.486498 4488.755268 130.486630 7178.227001 20990.952747 22014.224739 18233.660614 22678.388350 22911.093254 20486.262476 13535.879989 17256.719900 10656.389774 3385.021155 8691.134490 1780.957981 2043.914710 20511.315145 24741.571716 25516.278360 22525.154731 23978.444653 19995.154082 16668.492617 13337.924321 3829.990840 6616.764721 10136.847508 2159.172500 6706.937588 20254.041465 21978.858869 21198.804010 21588.259194 17638.521186 17851.228767 15514.129765 5084.015656 4528.990867 4534.389392 6594.134614 4098.533478 -100.181522 20652.401616 22101.823421 21604.847415 22341.949973 15670.591537 19843.269380 11962.153148 8837.843512 7742.021717 7533.637119 2215.912419 9336.785373 7060.485487 21245.667415 22526.930012 26761.863930 23760.450559 18535.816932 19485.303237 8292.263619 11528.544001 7860.103775 5761.505025 4836.448431 4479.649978 8243.915404 21307.569505 21189.583021 20715.801611 18514.774167 21947.492638 15585.056173 8797.396525 10094.384963 11317.820234 9375.948599 11364.120274 1996.755549 1043.566404 21184.865666 21708.451254 20826.654728 22553.638968 20153.259808 21221.876799 6385.452289 10139.723457 11598.843383 4049.376756 7119.560009 4945.358925 1756.060943 21283.223549 20770.243383 16239.856674 21744.077679 21885.556708 14874.888188 10960.527141 12617.383099 11990.345873 6082.172022 4187.672079 5781.876889 8737.462106 21216.332824 20979.444815 21443.449417 20059.369167 16676.806180 11969.001434 17884.364690 10923.339599 7202.770919 6905.778846 11936.608477 4932.420595 6639.298042 21090.329369 19627.055390 17801.252620 20275.817153 17502.011356 19286.695348 10645.209020 19672.099996 7345.647811 6491.231656 8365.963294 4540.050136 2236.685717 20602.410498 18342.049535 15079.402868 21157.571924 15208.006148 13476.715001 9746.827451 8755.574295 7008.003468 12655.415906 423.786263 6079.074563 3181.649755 20129.477335 19552.699634 18634.998625 20663.460176 16852.077420 15247.062300 14499.340254 13162.034168 7544.517366 6106.835157 1487.217437 1448.203505 1367.963463 20276.112133 21090.136940 20135.799908 18821.405860 17077.715778 13551.432940 10461.519543 13678.456322 5592.927240 6210.830525 5326.111040 7218.224612 6034.477523 20534.893154 20208.550940 19089.237511 16808.535704 13603.816863 20234.310093 11775.803350 10981.350096 11349.649916 8226.902025 9412.498104 3499.512788 -2494.137433 20402.099133 19099.731295 17330.914625 18265.247066 19985.667604 14548.130298 12458.612540 17923.815741 13930.560871 6114.498991 8003.603536 6600.288838 2797.950667 20430.811414 21037.576574 20492.076797 17635.538206 15492.709194 18574.241891 17428.544253 11157.445284 8357.318316 7918.995836 10662.278158 6996.051016 1298.469852 20531.581815 19124.944884 15102.250078 19727.022823 16202.174310 18000.263768 12290.436714 10239.882948 11429.914970 5583.451060 4677.395449 3406.340652 3456.480214 20622.596358 21177.672046 21219.825421 17410.712554 13812.952710 16108.377524 17957.692048 14135.403723 8743.034972 8964.649540 8665.557945 4524.256594 1709.078668 20141.222212 18334.619239 15027.227190 17518.693544 15305.258292 13297.968817 11698.022379 12863.607729 12373.783292 9533.016979 3180.364490 8263.098175 5706.826673 19860.697612 20381.403679 22475.392418 17304.965420 12974.116313 14483.202829 14425.778022 10458.120335 8577.560946 6096.470869 8497.125119 4986.256131 4269.757263 19818.669661 19024.232660 18562.054795 16541.059214 12053.889612 12306.703801 9458.118808 14687.815102 8418.595546 11076.674402 7402.832193 4608.728188 8257.385009 19936.407052 20262.074581 19868.468473 16942.760160 16111.097335 16389.165189 12375.576738 13172.688759 12794.568145 7641.753989 6148.461594 2507.577309 -802.131841 19887.968809 19100.779187 15045.314292 17196.507830 15984.265746 15419.567784 12008.788866 12122.784883 11266.541548 4901.551038 11255.672027 1212.699924 4455.180300 19747.193174 19935.474992 19101.739123 16565.656305 17009.905591 14213.280657 12792.124811 8923.532931 6493.970289 12078.794607 9317.239842 3679.375540 313.127644 19873.045158 19840.278427 19242.392772 13624.602016 16472.801657 12704.145947 14832.171152 12995.282184 9474.486896 8374.758418 7745.406717 4524.915043 -1894.043874 19583.035853 18354.216952 15528.605222 15856.571323 13990.615821 10503.691682 12785.046640 11346.236685 13415.235704 11607.155781 9576.655701 13798.342381 5174.525112 18858.071971 17756.138819 17226.154465 15001.692642 13421.521640 11050.893246 15752.297536 11647.426810 13828.285123 11152.745705 7685.492605 11692.206599 1942.130074 18466.849589 17510.087691 14398.079238 16648.977257 12116.362616 13036.046332 12013.688501 18573.346869 15565.086738 12966.106037 4348.490201 12566.509210 6204.247510 18093.928977 17683.101443 14552.392149 13204.444164 16061.253770 13587.611759 12037.716004 13832.636492 12996.951099 11046.984250 10782.042304 8666.767895 3852.067758 17632.618465 16748.061708 12657.704560 14633.802799 13278.549987 12579.385275 12649.189411 15485.152778 15572.832298 9467.851019 6269.644424 5390.465178 4247.064722 16891.389317 15014.911392 9452.260879 9625.511864 11417.870098 11641.547226 16411.490327 10385.147670 10203.782587 6418.128652 8702.385644 6249.519206 6876.640730 15908.377975 16113.603585 14954.821443 14589.804754 12479.311339 12426.928978 15304.278710 12652.774699 5773.707146 13752.951535 10601.348911 10402.874762 1990.724278 15197.823123 16906.631321 18512.744950 14202.740431 15634.536470 7968.475976 12594.413789 13145.298824 8597.783133 10379.847657 7700.114816 9692.193555 8375.586287 14943.125943 16417.287658 15485.162505 16915.684244 14733.381638 15354.233983 6972.600396 10030.388619 2214.646705 13196.372988 10820.415086 9640.914591 6297.645852 14721.516182 17272.649471 18455.838711 14219.195332 12655.142955 16235.664910 14067.445092 7475.297170 10632.200720 10164.505511 6574.799127 4660.771713 1635.546133 14238.683052 14723.189029 14380.821796 15643.475290 15564.426329 18177.633690 10043.879351 13661.551773 6558.632605 6984.592619 11082.012898 8491.122147 1649.166880 13820.641540 12113.502384 10187.071552 17914.484225 12395.570306 11712.177838 16047.013168 11177.325942 12209.006989 9025.004793 10734.489172 12764.900960 4732.398429 13077.110658 10802.359773 11765.633811 10306.733295 15905.435044 16255.250014 13835.747371 12721.401285 9030.645028 7025.251160 14019.247868 10428.747653 10536.286965 11899.573677 10491.865422 14770.395304 11512.913908 13919.607260 10950.259696 13487.740253 8592.804234 7686.018174 13439.243017 6814.013551 11007.265799 4969.028966 11042.636960 10891.214999 13507.611373 12822.606098 11011.200250 8121.031135 12786.370267 12096.929224 8258.890601 12130.270389 7570.207750 7203.736624 7601.870689 10905.053181 10140.890726 4422.033112 11447.017363 11962.857993 13415.028942 15801.171002 11632.259987 13425.310128 14022.656924 16975.194659 15742.007311 4021.618882 10956.937709 11005.428670 8657.657652 16979.640042 16569.366220 15143.021136 13336.273301 11809.260346 5928.933114 11774.350183 6911.533909 10451.408217 16016.846201
</DataArray>
<DataArray type="Float64" Name="Velocity" NumberOfComponents="3" format="ascii">