<VTKFile type="PolyData">
<PolyData>
<Piece NumberOfPoints="2177" NumberOfVerts="2177" NumberOfLines="0" NumberOfStrips="0" NumberOfPolys="0">
<PointData>
<DataArray type="Float64" Name="Pressure" format="ascii">
 16135.694820 16270.865240 16325.818067 16056.468177 15474.620919 14714.366001 13653.009395 12387.748968 10965.439208 9389.916599 7697.757742 6067.720172 4781.668842 4081.944488 3813.885347 3370.348041 2166.385004 552.812882 -393.991624 -591.595938 -679.504004 -1040.074763 -1840.745295 -2740.712812 -3284.252393 -3468.011145 -3442.343366 -3293.019866 -3063.246749 -2786.736477 -2494.155834 -2204.952570 -1928.796084 -1670.453421 -1432.366417 -1215.727018 -1020.943940 -847.881205 -695.990892 -564.388934 -451.904217 -357.122259 -278.435762 -214.105535 -162.328787 -121.308306 -89.315500 -64.741830 -46.136154 -32.229987 -21.960658 -14.508234 -9.331144 -6.058388 -4.266903 -3.528970 16876.845499 17396.073980 18108.754295 18051.959385 17341.180250 16845.583376 15701.890732 14372.006253 13049.411383 11705.393501 10026.315341 8249.299929 6838.503368 6239.834979 6082.068275 5736.723506 3524.401069 -849.875069 -2184.275397 -616.349425 -214.214798 -264.398678 -1450.922981 -3003.694789 -3549.807437 -3611.150012 -3515.929552 -3343.769788 -3097.198695 -2801.656132 -2499.706875 -2206.988137 -1929.685771 -1670.987065 -1432.791432 -1216.115900 -1021.315085 -848.236858 -696.328704 -564.705459 -452.196076 -357.386667 -278.670833 -214.310449 -162.503799 -121.454585 -89.434710 -64.835137 -46.201459 -32.253763 -21.894725 -14.258719 -8.843294 -5.625238 -4.000433 -3.365955 18036.987288 19280.629881 21075.871302 23534.810159 23406.550451 22271.971454 21281.895447 20128.923017 18050.311146 18620.179056 15003.143709 14251.089138 11390.073265 12597.587226 11961.035118 10883.590659 7286.520924 -2383.846795 -3312.165883 -30.432637 790.262588 1244.238480 -1089.540822 -3775.051465 -3993.498872 -3793.867827 -3608.756790 -3427.015281 -3167.661863 -2822.899625 -2505.476322 -2208.531169 -1929.921291 -1670.806630 -1432.477202 -1215.761763 -1020.954840 -847.884626 -695.991965 -564.389271 -451.904322 -357.122289 -278.435761 -214.105497 -162.328646 -121.307813 -89.313787 -64.735900 -46.115665 -32.159181 -21.719413 -13.621216 -7.543807 -4.737164 -3.547027 -3.096659 -4.712969 -3.520581 -2.987735 -2.971017 -2.573449 -2.318054 -1.755420 -1.662469 -1.572544 -1.073646 -1.049509 -1.020276 -0.657579 -0.652021 -0.642135 -0.400038 -0.399258 -0.395572 -0.240751 -0.241041 -0.239462 -0.143081 -0.143483 -0.142710 -0.083907 -0.084217 -0.083800 -0.048535 -0.048741 -0.048504 -0.027688 -0.027817 -0.027679 -0.015577 -0.015654 -0.015575 -0.008642 -0.008687 -0.008641 -0.004728 -0.004754 -0.004728 -0.002551 -0.002566 -0.002551 -0.001358 -0.001366 -0.001358 -0.000712 -0.000717 -0.000712 -0.000369 -0.000371 -0.000369 -0.000188 -0.000189 -0.000188 -0.000095 -0.000095 -0.000095 -0.000047 -0.000047 -0.000047 -0.000023 -0.000023 -0.000023 -0.000011 -0.000011 -0.000011 -0.000005 -0.000005 -0.000005 -0.000002 -0.000003 -0.000002 -0.000001 -0.000001 -0.000001 -0.000001 -0.000001 -0.000001 -0.000000 -0.000000 -0.000000 -0.000000 -0.000000 -0.000000 -0.000000 -0.000000 -0.000000 -0.000000 -0.000000 -0.000000 -0.000000 -0.000000 -0.000000 -0.000000 -0.000000 -0.000000 -0.000000 -0.000000 -0.000000 -0.000000 -0.000000 -0.000000 -0.000000 -0.000000 -0.000000 -0.000000 -0.000000 -0.000000 -0.000000 -0.000000 -0.000000 -0.000000 -0.000000 -0.000000 -0.000000 -0.000000 -0.000000 -0.000000 -0.000000 -0.000000 -0.000000 -0.000000 -0.000000 -0.000000 -0.000000 -0.000000 -0.000000 -0.000000 -0.000000 -0.000000 -0.000000 -0.000000 -0.000000 -0.000000 -0.000000 -0.000000 -0.000000 -0.000000 -0.000000 -0.000000 -0.000000 -0.000000 -0.000000 -0.000000 -0.000000 -0.000000 -0.000000 -0.000000 -0.000000 -0.000000 -0.000000 -0.000000 -0.000000 -0.000000 -0.000000 -0.000000 -0.000000 -0.000000 -0.000000 -0.000000 -0.000000 -0.000000 -0.000000 -0.000000 -0.000000 -0.000000 -0.000000 -0.000000 -0.000000 -0.000000 -0.000000 -0.000000 -0.000000 -0.000000 -0.000000 -0.000000 -0.000000 -0.000000 -0.000000 -0.000000 -0.000000 -0.000000 -0.000000 -0.000000 -0.000000 -0.000000 -0.000000 -0.000000 -0.000000 0.000000 0.000000 0.000000 0.000000 0.000000 0.000000 0.000000 0.000000 0.000000 0.000000 0.000000 0.000000 0.000000 0.000000 0.000000 0.000000 0.000000 0.000000 0.000001 0.000001 0.000001 0.000004 0.000004 0.000004 0.000011 0.000011 0.000011 0.000031 0.000031 0.000031 0.000082 0.000083 0.000082 0.000210 0.000213 0.000210 0.000523 0.000529 0.000523 0.001258 0.001271 0.001258 0.002922 0.002950 0.002922 0.006549 0.006607 0.006549 0.014165 0.014279 0.014165 0.029542 0.029758 0.029542 0.059365 0.059754 0.059365 0.114838 0.115506 0.114839 0.213602 0.214686 0.213603 0.381458 0.383110 0.381460 0.652786 0.655126 0.652792 1.067684 1.070706 1.067706 1.662905 1.666321 1.662974 2.452950 2.455993 2.453167 3.397837 3.399077 3.398524 4.355756 4.353100 4.357923 5.022628 5.013957 5.029455 4.866368 4.852038 4.887867 3.069628 3.060414 3.137339 -1.503781 -1.462097 -1.290423 -10.318620 -10.066923 -9.645739 -25.213406 -24.218125 -23.090915 -48.881323 -45.185471 -42.144118 -84.991685 -71.502474 -64.342503 -108.938862 -86.022180 -74.966048 10375.846120 10457.172779 10207.266185 7409.030053 8342.930065 10903.337667 9982.718433 6648.302205 5525.305898 2319.392750 3930.510959 3625.281809 6169.845109 -4761.415908 -6503.479783 -3997.957897 -3455.920026 -3485.107513 -3691.780494 -3928.934643 -4134.713311 -4295.233140 -4419.037514 -4517.082769 -4594.721291 -4651.125792 -4680.985384 -4676.432575 -4628.926457 -4531.089884 -4378.327936 -4169.985732 -3909.882753 -3606.186721 -3270.694482 -2917.655503 -2562.314174 -2219.367347 -1901.533770 -1618.409191 -1375.735462 -1175.150467 -1014.419898 -888.093201 -788.481412 -706.824685 -634.499501 -564.106745 -490.277432 -410.007215 -322.278201 -224.282870 -135.895208 -97.767692 -80.314194 -72.921725 10129.006769 9934.969114 9768.080786 9248.593237 9861.840994 8822.942465 7057.128674 5424.823514 4725.860018 3490.580331 3549.644480 2857.422526 2986.615501 78.349557 -2613.829573 -3118.375884 -3211.829113 -3417.092321 -3673.756213 -3924.660904 -4133.609517 -4294.757922 -4418.703673 -4516.778311 -4594.377978 -4650.686547 -4680.412299 -4675.715266 -4628.085669 -4530.174735 -4377.407521 -4169.137579 -3909.180814 -3605.690956 -3270.443275 -2917.661556 -2562.564003 -2219.824110 -1902.142750 -1619.105011 -1376.449985 -1175.820417 -1014.993458 -888.535162 -788.776805 -706.981667 -634.554575 -564.142796 -490.488801 -410.932246 -325.545946 -237.421749 -158.332583 -111.074288 -86.986418 -77.076497 10121.784803 9978.715178 9908.840471 10160.013801 10253.260083 9099.065786 7571.518917 6323.018155 5496.532434 4601.972024 3612.208066 2660.441825 1527.901095 -19.210370 -1564.594828 -2513.534080 -3008.433299 -3352.415832 -3656.862195 -3922.150972 -4134.189995 -4295.461889 -4419.136797 -4517.075651 -4594.683309 -4651.086877 -4680.951800 -4676.404085 -4628.902062 -4531.068900 -4378.309938 -4169.970395 -3909.869770 -3606.175781 -3270.685272 -2917.647726 -2562.307557 -2219.361660 -1901.528828 -1618.404862 -1375.731674 -1175.147248 -1014.417496 -888.092517 -788.485360 -706.842532 -634.560650 -564.304503 -490.908006 -412.015839 -328.602469 -245.852805 -173.578560 -122.422313 -92.885495 -80.337800 18567.601999 20016.362893 22981.076636 29513.914608 29140.304639 26054.584042 24831.061472 23917.899624 21005.041285 23110.783395 17135.304321 17798.062311 13325.767199 16513.079307 15459.120978 18992.497564 19125.202864 6049.185310 12318.211289 7607.675213 1183.315055 1419.157478 -1452.485438 -4257.266917 -4172.648567 -3848.592340 -3636.871109 -3465.087238 19503.196403 22227.060722 28979.048108 24310.178258 31343.377250 31171.092434 32204.831357 33795.421465 29661.715932 29072.514247 30696.152392 25465.633810 27757.047591 25000.319401 27108.959364 30572.021343 25355.684202 23984.925988 30290.640152 34115.661798 33032.348226 25922.305638 31145.761051 29543.351753 28772.614592 30521.938800 -366.171762 164.277125 20723.723482 24506.793554 32382.468410 22305.041393 23436.252421 25795.846592 24940.582447 22568.280160 30076.766593 27043.769909 31251.965179 28329.450431 21134.130620 31331.227024 32563.695856 25848.228591 13606.838176 23746.181560 29585.594920 28322.000170 24967.957433 31402.418031 30954.430968 27455.630833 26656.197995 19650.816076 20793.087207 19371.367913 21703.838574 23786.087762 30064.546307 25458.711751 30786.709384 27662.241822 28187.691035 26256.623050 24385.854186 24582.339273 14684.721867 15384.133254 26819.263837 16813.455043 32889.371955 16274.762133 24088.036557 25581.901379 21457.692869 19857.456094 22324.798041 6277.464283 24639.182917 26293.616792 30113.702151 13065.936218 31050.642729 16234.901492 22064.851540 25245.685699 32454.795976 27099.341724 24410.875518 24137.394743 25845.649873 17179.825785 31332.073967 14243.659378 23319.203047 26725.836228 18064.592162 25091.169645 6791.790899 22932.823277 25091.255219 18910.357129 19278.147292 22841.022566 9168.427821 19693.924214 27965.207505 8730.331648 14537.759376 19214.582735 10581.589387 8438.402527 22280.651808 25693.912204 36423.432859 23158.567722 30483.627905 22897.919801 31728.080198 24754.958118 27096.575565 21101.783442 20086.802520 23566.519045 35411.549533 17587.440986 20371.199431 25944.389566 11433.275232 21445.495563 26485.463402 18857.869257 17162.777286 31407.040114 15950.271600 18622.517880 13682.244708 8719.206703 661.695734 11827.095271 22537.405900 25274.274465 31667.630279 33180.442064 28994.514263 28056.541629 16927.152485 11673.856135 14029.333759 24174.160137 26288.055723 23493.751693 35069.229147 26237.710144 33154.907272 21310.978624 21718.483397 21517.032792 8637.342044 20412.828907 10141.924158 20687.042551 21888.393406 16112.259627 11132.410336 6664.357154 9812.787250 2245.537860 22756.081701 24984.977215 29102.615414 27945.698091 33806.419117 33452.269633 23484.464214 22609.963569 21400.325169 22670.607035 19424.704702 24222.425628 13614.366127 21334.103796 23023.201571 21720.747297 15820.291786 14916.460437 10735.391780 13969.032858 17405.622054 16089.379534 15119.534282 10753.225406 17355.142355 11049.352732 6137.847707 37.016807 22911.264780 24847.586947 28576.831438 26335.135089 30500.133019 25876.591249 25733.294698 32236.025341 21563.398700 18811.916049 17331.838415 26308.488495 25677.972303 25409.854453 10360.583575 8307.218377 14657.692177 13416.661835 16703.359557 9527.434999 21017.101009 14775.534381 2489.852422 15980.776754 10138.128784 9392.085583 15417.361819 7436.740641 22960.043808 24148.423446 27090.656268 30035.273933 26606.154098 20270.510645 19879.975578 22898.978595 11985.340472 20471.450494 12467.599052 16354.535908 10334.494291 10851.958988 4138.031422 9252.751161 13170.128773 10892.125184 9903.884646 9906.211455 10372.472461 9216.612975 14413.182993 4750.262690 13610.251070 3518.529431 7712.950200 10409.229794 22709.180967 24050.109757 30061.467069 26642.664633 25662.459622 27281.501430 26397.539382 26518.415194 13019.691561 23381.781008 8812.711383 16515.336935 2143.230073 11690.393684 16063.424019 13514.858532 7923.387600 12815.035030 17775.623596 9938.877307 10657.559633 8672.702152 6886.613369 11824.727830 16161.571989 10346.124462 6663.977054 1562.668758 22420.443983 24452.962472 33898.237403 26443.783708 17428.784048 26106.250434 24734.301551 19985.388576 12247.905419 16558.337428 12812.496389 14749.845214 20229.169938 17409.652334 9221.979017 23780.352660 18716.040640 15064.967869 1918.234301 4387.120584 8487.023899 4907.125297 11537.769437 17562.942059 5013.038435 7147.942229 279.872571 8607.037624 22880.423590 25316.372761 31342.050089 25013.532156 24605.454991 23847.950293 21315.955044 12538.374503 20229.486287 18379.305717 14565.206742 10469.254477 16620.606539 7379.047304 14156.334699 4760.118200 8750.064438 -690.065277 9415.452019 5476.906728 4945.809793 6715.644546 9854.720262 6973.643915 15872.922999 17847.089448 387.250003 6187.597625 23755.676539 24574.502870 23931.692372 25677.748955 22392.617598 20976.771854 21421.056179 24720.241715 19873.451645 19607.252811 21617.120701 5823.806991 9613.750060 4256.783369 5226.599195 1000.022773 12953.246252 -585.456288 12003.551245 8459.507773 15642.335502 3843.392710 20544.285674 5816.668158 5790.130634 13143.542160 6272.871305 5273.333914 24105.350827 25358.134979 27595.812102 25963.774835 24561.142185 30163.813243 20144.159938 19609.241751 8580.802194 14473.057396 19777.842818 5236.414439 7900.362904 1662.459251 1897.531678 386.537428 1807.782302 2467.949307 2147.530590 1875.706621 3355.681456 2895.259566 4955.188647 4328.691292 1155.435080 2842.664127 42.094204 19117.001524 24408.658517 26232.169113 26781.918688 24476.799847 23598.211381 26693.882901 15311.295451 17762.767860 14649.999031 8524.128522 6595.271299 3114.036986 3270.166137 24850.940621 26604.871989 28608.851952 23105.435854 26558.336274 11534.979383 23909.280114 15475.885543 11768.573532 13845.457911 6717.899572 4290.222936 2366.619430 25192.810231 26570.756662 29881.419014 20092.292173 19887.259404 24238.599894 11872.582354 14889.538469 3079.850768 5035.913604 5671.742724 1899.152618 1302.078825 25233.576705 25677.061372 25515.121217 23714.395201 25234.515061 10535.977407 16325.862571 11066.427759 5129.530268 7472.800007 11242.505446 8599.280177 1003.753964 25150.408274 26043.737388 27568.133522 29482.915269 13674.908195 15001.086166 5798.934632 14871.778979 13155.755130 7731.373262 2034.028094 259.731499 2399.234952 25044.792560 25638.152492 27094.099919 20284.272619 18281.826154 17692.652047 22676.855440 8860.861165 7369.216110 4575.384840 5694.932080 1979.298239 2236.333827 25177.451799 26240.300121 24691.925010 22130.189918 24220.273834 20855.337723 15279.029494 15909.404359 5555.270923 10354.954109 11870.034914 8965.984662 3012.577819 25491.762242 27682.012425 27836.666763 26265.712155 25404.023184 15346.030189 23802.118213 2453.949772 12447.674302 1390.896528 4148.888324 2937.706813 738.797387 25674.292200 26623.638806 27375.099975 24695.499004 22764.167162 23146.980721 20867.079999 5652.975606 17165.971680 4098.143015 7221.659552 1848.210741 1188.631261 25445.774321 27872.510565 30235.586799 23657.207073 22782.885606 18224.141875 15817.404031 13593.617648 10076.648120 9624.927255 10324.493237 4439.867827 1722.224543 25283.254192 25801.186477 27348.947069 20823.448999 21581.621580 18528.651860 23780.960333 3951.254344 8949.470623 4982.980547 7848.731408 6524.849128 2093.027051 25455.233004 27610.199638 30750.883252 23129.239260 20474.569883 18895.941526 12115.791658 11495.842389 15492.599679 9885.587506 4410.966062 9912.030737 2591.114979 25901.582100 28399.211991 29397.627048 26683.067422 23902.278442 23150.630144 19966.833246 16819.361546 13391.937246 5378.841862 7042.324719 5608.245862 1311.191704 25921.411483 26428.882019 25887.227274 24688.852660 16791.255958 14045.973872 13628.212026 4135.267757 3103.072730 16806.652839 9928.127321 2711.457922 2440.279511 25723.920131 24885.614576 25542.479555 25437.829647 24947.523879 23607.807761 8247.680485 18888.945472 4829.197042 6074.447837 6538.423609 13073.466676 636.741239 25659.079698 25791.688395 25674.409569 23420.123847 18515.372195 22500.701711 22017.656070 14886.825110 9854.129562 5752.735718 4287.250963 7279.083329 434.306392 25495.575229 25908.912927 26717.983640 17624.266385 11873.920573 12754.110992 8562.795494 14702.953437 7108.870431 11653.333163 6231.286329 5330.451603 2941.265457 25126.851157 25411.015793 26731.178909 28944.944564 19169.104833 19446.635750 8100.616080 14631.784091 14626.075198 10646.568525 10446.765695 5052.716090 154.056405 25099.456341 24833.382817 26286.540607 23563.938178 16630.212385 16877.973726 19035.635408 18662.903949 3556.126523 5526.708108 11111.382921 10362.661010 940.176625 25121.805326 25280.133432 27278.263595 25373.609659 26944.687363 15170.706748 7070.914002 10170.049700 6824.736025 14535.355079 12308.851282 7889.849198 1274.204445 24820.377322 23853.831389 25647.964130 23143.697146 25157.862571 19659.435846 15701.400709 18275.444075 19201.831646 11709.996298 8599.887150 2515.944901 553.669736 24247.987395 21976.163996 22919.029655 23418.282722 22661.684531 22004.037248 16871.866232 22942.818917 13684.898080 13027.900516 8452.499903 11571.495738 420.854107 24096.737287 23069.739519 22693.454591 26613.908982 22646.862384 16819.613350 21311.178930 13113.037056 8514.978741 11938.213448 5352.433781 3030.897786 2111.630762 24145.131273 23490.121006 21365.612493 23604.548936 28006.900810 21405.800522 19240.436996 18891.301034 18949.269134 13429.745174 13075.239630 5208.214136 3705.541478 24030.834920 22943.649697 21126.883600 27047.164259 22534.465170 22487.693560 17442.362739 15905.917785 17719.180014 7705.920135 4265.021917 6327.122664 457.514091 23835.824682 22307.936262 20602.930026 25944.845646 23607.034831 13668.638042 20685.014179 18213.471536 14677.863828 3722.885895 3987.150218 3957.173351 6277.635233 23370.162310 22373.527057 21528.834928 23967.659752 23136.831750 21090.451984 16002.149881 10718.944902 13756.058594 8989.799177 4672.435173 584.587115 -381.898651 22905.291905 22171.528836 19848.645390 21422.240271 20327.901837 13974.443324 15330.296362 11793.693653 14955.411159 10902.868927 4461.091768 6363.596384 1003.260933 22678.176018 22603.808293 22728.822528 19727.449959 20463.598976 15064.620522 15434.380501 18254.158570 14552.665409 7526.488019 10622.459146 5961.802536 2598.498484 22377.318306 22263.752465 22418.215425 23232.521891 21763.271326 20664.980954 17094.187656 17563.519810 15779.060254 7646.292908 3480.538278 3494.369366 658.743098 21750.533132 19797.398689 18043.319984 19269.214068 18162.723958 19175.913003 17383.442135 14592.425095 6494.692635 10137.325004 6152.539845 732.864638 5970.415190 21611.927212 20625.118311 19831.204070 22901.224712 21840.902843 19053.255350 11348.018428 9471.046402 7866.353988 9433.822500 2861.881975 3947.887356 3028.723147 21751.850482 21810.067953 19999.633434 20892.776113 16729.864799 14426.883982 6419.752676 4984.478961 9069.521982 9036.631644 12088.746358 2549.787409 1892.765784 21366.768197 20955.193523 17755.273623 21774.058986 17969.887402 14725.227282 14077.027120 11022.081094 10243.260735 13293.620994 2651.876710 2036.179787 2072.633381 20715.625013 20556.597646 19315.234928 22352.770744 21079.658333 18825.698644 12464.409545 12285.662287 9305.897189 3823.452516 5561.351316 2999.099420 933.766460 20328.202121 20275.167389 20568.884959 19845.067681 17513.961141 17280.513215 19288.150150 11910.150198 7984.959154 9173.648752 7890.892317 1886.997913 4123.860180 20124.082304 20168.295849 22282.434518 20416.630799 18085.010088 12850.383841 15819.063348 6430.962818 5468.145794 9461.868659 4475.323387 840.633515 2878.873604 20091.519432 19484.211566 19945.970516 19457.577387 19515.219112 13867.452733 13623.376575 3721.470722 12465.161791 11645.007406 3897.756306 6139.906284 6607.498635 20166.413600 20104.757302 18985.254348 19318.376379 19351.638264 17574.708142 19321.157901 14867.750135 17430.117562 8695.013590 5165.188587 6025.857590 2698.130982 20377.703336 20326.506618 19085.158813 20453.106339 18784.969279 16346.887159 15724.165615 14687.243074 7088.351779 9254.347630 5836.650429 6940.978217 7023.947625 20058.802901 19010.068461 17520.134348 19378.765912 16251.162949 17282.606898 14900.809285 11888.239351 12095.423336 12710.185067 6068.118024 1887.360088 4160.317816 19611.066647 18643.193721 17655.333336 17594.048370 16526.465328 18025.851107 15559.119919 10670.755122 11145.342679 8828.612920 7142.180750 583.291139 1862.769352 19305.931776 18647.330296 18718.997857 18610.611781 18921.566124 16218.906313 16065.804309 12513.891380 13433.698788 7920.988616 11009.808215 7910.015813 870.676847 19150.259239 18157.776828 18286.097982 16895.112686 20300.006490 10984.241272 18005.925364 13777.073278 9602.186088 4487.135360 7285.741973 2671.781845 3657.333925 19347.800796 20227.135412 20204.756914 20017.899414 19521.273699 16059.986089 12388.285444 16715.547105 10388.945235 4269.999088 6145.499249 5323.852607 2069.243359 19257.153148 18328.628729 16658.706316 17493.290424 18024.555702 17513.957003 11911.885193 12601.771297 5772.334743 6284.411440 7686.495087 1556.461570 4935.583296 19160.779449 18740.661418 18406.447131 20407.907490 16481.318374 15408.879589 17027.970422 6202.171974 3390.869765 7060.443951 4758.137845 965.171234 4110.899341 18975.099275 17649.142209 15667.803337 21051.747675 15204.154152 13954.763816 10493.665489 8075.688551 2764.903640 9901.943379 3469.639348 9355.965992 4373.734434 18694.094764 17530.463890 15798.959627 19532.195390 20025.177046 18364.091590 7401.729429 9108.931582 7555.950084 9096.317998 5180.110721 3657.949013 2810.724883 18394.574844 17959.449569 17337.583162 19040.216541 17752.818738 16850.751131 8440.464404 9482.466918 11641.808296 8646.342851 10054.329357 3459.618916 751.983327 18160.771095 17196.893312 15966.999878 20547.431137 17967.611468 19458.660985 5865.493935 9115.136277 9745.952959 6401.125656 6831.497163 2517.349890 1452.899893 18106.161533 18575.146148 17124.051461 20944.132689 20725.893335 13767.952041 10125.747724 9845.618567 10968.879846 5274.191452 5896.193743 5560.591662 7579.906525 18141.204670 19716.214265 20411.726218 17553.753809 18032.121921 8988.624618 14112.357599 12018.165633 8438.840921 7180.092594 9638.009362 6338.036373 3079.755623 17752.253180 17607.118165 17105.415936 18440.359394 16461.422991 16099.780261 9898.382882 16933.787218 13276.790310 4514.045008 9957.060842 7957.478797 2894.666363 17277.685497 16203.342847 15140.998724 16518.781343 16951.196697 11751.754244 7255.568448 11020.730348 6421.902288 10415.436798 953.766681 7963.530605 1019.703853 17346.083107 17389.782782 16840.545066 15862.206757 15700.462260 14657.996236 14238.080536 8896.373549 6823.469023 5341.531452 228.469633 396.060976 3809.660012 17648.307865 18453.746963 17136.473840 16574.094003 13635.661596 15688.625228 10883.450200 12651.476365 2422.558307 6066.843502 2991.334033 7517.815145 6314.331673 17871.658717 18050.213691 16632.284284 17354.236400 9306.809326 17228.339495 11683.354774 11268.166799 8629.014994 10375.154550 7830.138797 4257.802548 317.838921 18233.523865 19293.702125 21241.335435 17125.450973 14790.068209 11351.046924 12319.532155 12042.976846 12892.173119 6228.419840 4672.927130 3225.592677 5990.048454 18438.816595 18458.800369 17118.735420 15043.852088 14272.818385 15126.868031 14698.368311 12854.821112 2152.478453 11518.137177 10845.017434 4115.418418 5235.624901 18385.786473 18001.315764 17041.357800 17018.711888 13649.828407 14702.388478 11867.260820 6753.495230 12257.904587 5473.071583 5021.524287 7393.159844 6144.320923 18169.953288 17741.790990 16558.647978 14407.690446 17984.610909 12557.593404 13206.355534 9148.046035 6907.587836 9382.772634 6608.922967 7769.600410 3103.510978 18168.035768 18156.947206 18648.604695 16297.369418 15090.178538 15533.478866 9485.257921 11956.785333 11224.853601 9361.526619 4775.124070 8173.456666 3421.982013 18172.323118 17947.696271 18293.206669 15244.732161 15348.897081 13974.038135 12921.868804 13377.939787 9227.128320 6436.036620 9007.865600 2774.340576 3796.695464 18095.911395 17607.580380 16280.757116 14720.592974 10921.877255 12214.660886 8529.687261 10048.781762 9302.967141 8578.608940 6916.712902 5707.648850 4476.879229 17995.561070 17520.165085 17835.237283 16326.277588 14892.126656 12400.923089 12633.718114 11571.201060 12972.759009 5341.821680 2616.056820 4496.839604 4454.668583 17739.044268 16616.329966 15781.263812 14969.456027 13026.561070 15467.637029 12753.744951 12065.306185 8191.566709 8440.205793 8541.823934 4634.737161 -1365.478227 17527.381787 17419.077570 16257.481226 16970.808793 13201.789336 12023.920971 11390.403193 7841.524353 6537.371731 11176.420039 3146.524817 1300.794355 1334.028781 17172.933133 15909.841817 15331.203326 14273.279466 14074.304782 12300.140616 16015.651182 8345.421069 7438.163139 4090.931075 3014.564784 3783.102190 754.626924 16712.680039 15131.738655 12459.538527 14793.800022 11938.829392 11504.833511 10017.490636 15202.870169 10209.556425 8807.154111 5118.125044 8906.610925 -432.458425 16434.277263 14793.159111 10321.963693 14608.348823 10853.011290 7696.949575 11583.208601 11604.442718 7772.248697 10480.761879 6134.372665 12204.142864 2460.648039 16091.290916 14509.022486 13019.863113 15611.923728 14140.431625 11752.974615 13930.822161 10066.145085 9328.339888 6943.258713 1326.044105 963.181411 5001.372541 15511.630745 15361.926167 17815.391719 14630.842006 8986.747918 9441.764972 12471.845967 11970.438513 11334.495381 7849.781181 9282.983652 7338.581540 -1133.037495 14967.103360 15345.711255 19883.775279 14973.199269 13500.988407 14619.958230 7299.389304 11068.090417 11588.723700 8471.058181 4519.521976 4185.772025 1017.819372 14855.231231 16510.618891 20612.277378 11704.477660 8783.156279 10989.679462 13572.890077 12159.214678 10677.302604 7775.096987 8605.885616 6669.225747 6372.951318 14881.800704 15387.297232 14933.784152 14577.006979 11884.935683 6342.311239 6061.261704 12658.616913 8604.328164 14082.859033 11124.257348 7424.850300 -1432.638656 14633.695369 14922.539138 18655.306122 8149.482643 10088.673531 12763.186567 10760.728539 8524.318212 12170.924750 9246.629989 13263.048403 8085.186256 10079.778418 14014.520605 14703.850093 16449.666786 16898.378883 10955.989025 10344.397445 11479.046769 7056.979916 4728.841777 8850.999301 7929.150950 8974.435060 7008.372559 12969.271247 12948.030843 11809.103205 14292.842673 12041.479518 8096.279459 7983.684744 9470.250950 14997.816691 6035.099405 4998.216948 4791.384443 1561.601082 12092.125216 13212.562218 14570.411716 12381.194242 11893.039965 11260.882518 12280.049208 10193.810886 10630.355279 9917.940484 15564.537345 5348.342048 -121.980305 12436.908020 14482.146237 11711.842070 11247.172203 13228.559516 9087.769492 12627.444377 15753.277147 6863.811011 11429.505551 7093.331956 9165.860584 2949.993276 12783.081796 15517.949713 13913.683621 15373.218524 11851.159774 11551.772417 9594.037819 10321.536591 15037.468404 8972.273775 11447.687120 17325.026514 8369.219649 12282.691008 14137.156917 14304.033494 6611.755649 12149.661139 11446.931465 9242.388164 5746.748028 13598.819114 8564.545850 9085.541618 10334.182414 6144.986300 11759.689423 11290.982472 9501.814710 10244.458565 11022.779777 10107.260016 15321.785726 7195.077073 5067.942813 14029.059324 10365.777816 10847.143629 12817.382133 11043.779185 10363.187846 8175.336599 13154.622824 16510.540906 11207.224152 12635.053241 12826.847262 12216.891461 14300.337227 10195.458665 10463.535173 8255.220800 10375.846120 10457.172779 10207.266185 11257.642191 13550.709355 12704.988195 8887.175443 9211.275633 8205.107958 12449.017258 9654.953583 13915.939713 6627.944584
</DataArray>
<DataArray type="Float64" Name="Velocity" NumberOfComponents="3" format="ascii">