<VTKFile type="PolyData">
<PolyData>
<Piece NumberOfPoints="2177" NumberOfVerts="2177" NumberOfLines="0" NumberOfStrips="0" NumberOfPolys="0">
<PointData>
<DataArray type="Float64" Name="Pressure" format="ascii">
 15840.496672 15881.677901 15907.966007 15841.125535 15547.201172 15019.360817 14307.435686 13458.516613 12567.593220 11640.934903 10685.751324 9754.483592 8886.385002 8003.638532 6979.196155 5800.941648 4524.495777 3251.918682 2060.265981 1029.749862 262.410958 -233.662580 -551.256194 -776.520478 -951.373868 -1092.866389 -1209.931074 -1309.757212 -1398.075347 -1475.726668 -1539.824779 -1588.451249 -1621.357570 -1639.076499 -1642.455957 -1632.503988 -1610.344500 -1577.196121 -1534.349140 -1483.136606 -1424.901899 -1360.966172 -1292.598664 -1220.992003 -1147.243764 -1072.345052 -997.177257 -922.520967 -849.091147 -777.644042 -709.289192 -646.210473 -592.543309 -553.036168 -529.128668 -518.886513 16220.926145 16272.235356 16470.881789 16730.225908 16540.258330 15962.911692 15239.366461 14389.027139 13572.680055 12688.649566 11727.293657 10735.921983 9897.371166 9204.874272 8240.276379 7114.523105 5780.321173 4350.086026 2966.791650 1630.531660 505.664758 -173.518944 -538.435127 -772.668781 -948.690326 -1089.325724 -1203.859758 -1300.074762 -1389.601722 -1471.777201 -1538.252324 -1587.774621 -1620.979921 -1638.803022 -1642.226665 -1632.301604 -1610.164783 -1577.038520 -1534.213840 -1483.023608 -1424.810751 -1360.895934 -1292.547935 -1220.958892 -1147.225587 -1072.337092 -997.168496 -922.480059 -848.921536 -777.047526 -707.383820 -641.219615 -582.854671 -542.478975 -520.349471 -511.758411 16758.077238 16850.185138 17726.699376 19313.322359 18591.467128 17208.193541 16057.209834 15885.124732 14483.511429 14553.955665 14078.328863 13256.762495 11551.174483 12131.289183 10247.992353 9760.222724 7827.600994 6662.707527 4353.902535 2863.336958 971.051796 -77.069447 -520.595999 -768.075734 -945.715125 -1085.140362 -1195.208200 -1280.767170 -1370.341217 -1466.494273 -1537.050600 -1587.604347 -1621.099423 -1638.997728 -1642.431905 -1632.496639 -1610.342252 -1577.195433 -1534.348926 -1483.136532 -1424.901848 -1360.966063 -1292.598326 -1220.990907 -1147.240194 -1072.333412 -997.139306 -922.397230 -848.687808 -776.327662 -705.030728 -631.619752 -560.459654 -522.145134 -505.209452 -499.793329 -515.875886 -498.062971 -490.989550 -469.563478 -463.098080 -459.591168 -421.223412 -419.670819 -418.262783 -379.407777 -378.982648 -378.492344 -341.357412 -341.263243 -341.076128 -306.476913 -306.479794 -306.390411 -274.492371 -274.523230 -274.465776 -245.227301 -245.265071 -245.219124 -218.528370 -218.566561 -218.525857 -194.245923 -194.282520 -194.245150 -172.229817 -172.264206 -172.229580 -152.329691 -152.361707 -152.329618 -134.396322 -134.425954 -134.396299 -118.283108 -118.310408 -118.283101 -103.847389 -103.872437 -103.847387 -90.951530 -90.974423 -90.951529 -79.463771 -79.484619 -79.463771 -69.258872 -69.277789 -69.258872 -60.218552 -60.235658 -60.218552 -52.231766 -52.247183 -52.231766 -45.194846 -45.208695 -45.194846 -39.011503 -39.023904 -39.011503 -33.592742 -33.603811 -33.592742 -28.856688 -28.866538 -28.856688 -24.728347 -24.737086 -24.728347 -21.139318 -21.147048 -21.139318 -18.027466 -18.034284 -18.027466 -15.336574 -15.342569 -15.336574 -13.015971 -13.021228 -13.015971 -11.020162 -11.024759 -11.020162 -9.308453 -9.312463 -9.308453 -7.844583 -7.848071 -7.844583 -6.596362 -6.599389 -6.596362 -5.535334 -5.537955 -5.535334 -4.636441 -4.638706 -4.636441 -3.877721 -3.879677 -3.877721 -3.240020 -3.241706 -3.240020 -2.706722 -2.708177 -2.706722 -2.263511 -2.264768 -2.263511 -1.898148 -1.899238 -1.898148 -1.600277 -1.601226 -1.600277 -1.361247 -1.362081 -1.361247 -1.173966 -1.174709 -1.173966 -1.032772 -1.033445 -1.032772 -0.933324 -0.933947 -0.933324 -0.872524 -0.873116 -0.872524 -0.848451 -0.849031 -0.848451 -0.860323 -0.860907 -0.860323 -0.908473 -0.909081 -0.908473 -0.994356 -0.995006 -0.994356 -1.120565 -1.121276 -1.120565 -1.290876 -1.291668 -1.290876 -1.510305 -1.511200 -1.510305 -1.785193 -1.786213 -1.785193 -2.123301 -2.124472 -2.123301 -2.533931 -2.535280 -2.533931 -3.028064 -3.029620 -3.028064 -3.618510 -3.620306 -3.618510 -4.320086 -4.322157 -4.320086 -5.149795 -5.152181 -5.149795 -6.127036 -6.129778 -6.127036 -7.273812 -7.276958 -7.273812 -8.614962 -8.618560 -8.614962 -10.178390 -10.182494 -10.178390 -11.995307 -11.999974 -11.995307 -14.100472 -14.105766 -14.100472 -16.532435 -16.538420 -16.532435 -19.333765 -19.340510 -19.333765 -22.551274 -22.558852 -22.551274 -26.236218 -26.244704 -26.236218 -30.444475 -30.453947 -30.444475 -35.236689 -35.247227 -35.236689 -40.678376 -40.690061 -40.678376 -46.839975 -46.852887 -46.839975 -53.796846 -53.811066 -53.796846 -61.629195 -61.644799 -61.629195 -70.421921 -70.438984 -70.421921 -80.264376 -80.282966 -80.264376 -91.250019 -91.270197 -91.250019 -103.475967 -103.497786 -103.475967 -117.042419 -117.065921 -117.042419 -132.051956 -132.077168 -132.051956 -148.608697 -148.635631 -148.608697 -166.817313 -166.845963 -166.817313 -186.781888 -186.812228 -186.781888 -208.604622 -208.636601 -208.604621 -232.384376 -232.417918 -232.384372 -258.215053 -258.250051 -258.215042 -286.183830 -286.220139 -286.183793 -316.369226 -316.406648 -316.369107 -348.839058 -348.877297 -348.838673 -383.648316 -383.686828 -383.647067 -420.837139 -420.874669 -420.833083 -460.429407 -460.462470 -460.416241 -502.433617 -502.451548 -502.390877 -546.851423 -546.820063 -546.712698 -593.712315 -593.518447 -593.262013 -643.191092 -642.447368 -641.730558 -696.222484 -693.372204 -691.462399 -753.242364 -742.651143 -738.232550 -782.458514 -765.502353 -758.187155 12835.774944 12752.246797 14025.276820 13528.111582 13097.303235 10097.938810 5253.107908 5670.605417 6506.793779 5957.752233 4845.790696 3857.066054 2261.289733 175.231765 -33.422287 71.981814 105.145247 89.917421 40.170182 -26.402882 -99.303743 -178.659422 -269.712189 -376.935497 -501.243106 -639.808059 -787.135792 -936.440042 -1080.866979 -1214.400121 -1332.409728 -1431.873749 -1511.334104 -1570.671098 -1610.781163 -1633.231825 -1639.948147 -1632.962699 -1614.240859 -1585.577854 -1548.554489 -1504.534561 -1454.687263 -1400.020803 -1341.417358 -1279.663051 -1215.468636 -1149.474890 -1082.225158 -1014.041410 -944.646819 -870.377875 -803.151339 -774.018317 -761.547115 -757.164973 12883.263351 12619.534958 11739.155277 10075.204475 9688.527265 9857.030042 9088.077070 8286.696894 7660.603937 6310.189330 4795.237247 3328.839631 1852.826599 735.564281 322.179860 203.987266 153.844346 107.029889 45.678767 -24.807854 -98.973928 -178.765385 -269.976104 -377.229657 -501.490304 -639.961826 -787.175009 -936.364149 -1080.690360 -1214.146223 -1332.105611 -1431.545657 -1511.004411 -1570.356692 -1610.493092 -1632.975858 -1639.725883 -1632.772858 -1614.080498 -1585.443352 -1548.442240 -1504.441387 -1454.610632 -1399.958991 -1341.369859 -1279.632047 -1215.464069 -1149.531347 -1082.457743 -1014.838272 -947.289845 -880.960699 -822.561997 -788.072139 -771.234758 -764.976369 12927.829252 12772.721254 12396.103030 11635.255699 10902.848219 10156.297817 9312.996979 8389.788584 7359.151649 6170.531706 4852.342611 3506.452385 2205.501739 1184.599366 591.600733 320.190907 200.911058 124.514896 51.393949 -23.185859 -98.492530 -178.478470 -269.674640 -376.926569 -501.239785 -639.806325 -787.134835 -936.439533 -1080.866716 -1214.399987 -1332.409659 -1431.873714 -1511.334086 -1570.671088 -1610.781159 -1633.231823 -1639.948146 -1632.962700 -1614.240863 -1585.577865 -1548.554527 -1504.534684 -1454.687664 -1400.022108 -1341.421604 -1279.676863 -1215.513574 -1149.621109 -1082.700809 -1015.591392 -949.639060 -887.731041 -835.435336 -799.296998 -779.079170 -770.929175 17073.455136 17142.099238 18343.790091 20726.428092 19013.926968 17957.070876 17169.954098 17152.419680 14672.503741 16166.005408 15937.780201 16410.098849 13763.592675 16632.840578 13595.424477 12948.175869 10315.998733 9371.408210 5384.717968 5860.919273 1290.719277 -48.361049 -516.946413 -767.444937 -945.304742 -1084.266197 -1192.408987 -1270.835889 17876.373259 17933.778458 18337.106489 14792.217191 18400.384062 17056.470619 24827.022758 20180.982708 18513.099424 19769.137838 22789.780398 22639.286178 21383.805333 19446.266098 21646.638177 18649.491436 12631.223382 24113.552767 20061.517434 16062.777043 19840.900066 18305.921043 20085.000093 19891.644531 17280.934624 19146.323464 7598.012534 10622.846945 18737.356145 19387.551621 19293.073731 13391.050044 20486.742321 19857.660611 18633.989119 17985.680133 16210.379580 14771.462510 15234.722168 16203.277831 21303.557844 11730.759740 15862.136975 19534.415567 19365.572665 18578.069991 21060.760766 16118.838065 18447.925906 15904.803434 14024.015084 16350.565086 20858.267309 16191.359170 19627.860454 16950.730115 19166.207598 20080.068191 21045.628853 15668.920303 19214.110445 14370.145661 17900.664330 15311.213980 18547.431614 18986.511661 6078.535570 13447.190231 21623.301328 15061.921648 18401.699104 19820.764550 15017.982620 16003.011141 17497.774849 18200.806954 16121.593982 13850.455792 9762.369039 16254.549033 24973.358857 13180.330210 21442.286634 14843.076947 19237.269591 19701.015788 21957.893890 21479.653088 15355.186880 19716.329912 16650.681040 6706.509892 20828.048629 10459.692259 12631.790990 17976.215316 18626.701394 22947.913982 10857.114745 7970.988731 19227.849109 15902.911910 16489.164858 20192.499463 9861.002151 19170.692850 19855.179728 13502.369635 5041.984096 9652.975518 5793.913948 9501.180738 19425.505417 19281.328789 19198.357166 17521.105512 17519.146617 20588.556475 20342.683826 15456.021465 14373.410015 18729.259670 17045.472610 18300.700558 16092.760018 9643.127304 10144.389262 19969.940231 17247.965075 13512.355241 16305.381372 21031.962035 13810.888365 12944.490624 20758.522492 14745.529007 16378.973144 9711.360130 11792.532739 8221.461739 19416.610838 19546.540664 20043.488032 18957.472202 13457.754963 14629.271370 12387.550362 10919.866954 20161.878756 10419.784808 13912.820506 15708.037492 19589.913497 13765.382186 18102.804977 9384.031657 11904.905875 16429.132653 12930.600189 12574.527924 7220.419331 16155.771941 16794.284356 17365.503825 8924.337990 11962.336602 10088.456227 3253.059249 18862.005856 18973.792253 23204.568936 20337.076665 17998.659612 17871.146711 17097.701010 17465.035396 17715.245588 13789.039700 15113.293429 18643.528504 10947.699580 7425.730644 18132.678558 17157.585436 14422.012144 20490.422040 8946.143020 14052.296199 20370.650044 15751.155245 10385.428613 8404.428398 11698.165151 10354.689860 6240.537386 12136.642456 18697.191853 17895.526918 19783.332752 18219.677630 19774.084159 19595.046945 19507.507371 16929.548644 13342.072533 8647.706553 12060.632706 14371.466445 16309.816288 17543.916390 10159.794491 9563.520582 12200.037710 9475.195177 13531.307094 9225.142273 10602.012650 14951.686379 5235.561546 11620.097522 8312.393981 4988.960390 13310.577766 7749.617514 18887.671490 19788.053512 21149.933690 20150.490663 20959.174194 16872.023749 18510.630390 16928.818984 9310.050780 12647.926331 6428.553790 9292.843805 8541.648283 8616.368481 8722.821262 8238.256561 8248.349884 12958.672576 15609.226600 9298.815597 15388.377288 14532.913894 8162.963489 13691.823931 17368.088733 11329.312015 10125.977060 8197.692013 19308.461559 21913.673617 23599.770558 18230.579706 10796.511963 16135.189007 17651.389402 17697.557361 12175.430925 15990.580875 18770.499723 18335.567191 12403.318743 7239.951193 16778.548831 8537.506241 7034.454993 10091.196469 18706.198221 10109.093070 12564.070896 8618.061787 9878.828125 7576.369523 13951.571589 8392.349988 3241.216790 8070.461297 19603.801405 20859.523689 23849.091053 19642.804981 11111.854820 18569.739478 15344.059506 18418.317515 8842.674729 11735.225222 4254.741565 15118.407468 17272.494508 11775.852844 13006.736370 13646.405116 14173.376482 10099.040167 5954.479403 6445.287261 9909.462877 8721.603424 9656.874146 12000.673089 7714.428854 15148.982249 8815.111491 9921.236985 19738.279807 20179.831816 22912.394459 11266.330608 16123.582454 16593.830816 16422.621742 9755.875114 17412.577855 18880.305423 11502.890804 6131.264164 6535.793799 7595.121886 11373.245561 14071.350641 10117.143070 6180.654194 10877.753930 14863.242698 12023.529568 9637.945718 10434.769999 11244.365606 10466.020995 15516.879297 4778.330213 15653.066309 20064.998637 21036.015676 21485.609837 13135.353862 13625.976855 12415.974428 19630.321762 18285.919611 7224.101070 17203.716132 15173.380211 5841.092665 10804.976229 8670.027680 6074.032225 5763.543985 6158.688283 6658.673142 13123.042707 9334.650266 17578.238162 4646.800135 10492.390503 7437.208106 10049.267398 13565.109858 7612.133361 5920.192695 20340.337345 24044.977924 25984.011114 11776.983488 15421.265301 15846.851729 13219.864110 17014.015702 9845.573937 18926.486520 14347.192513 5977.226974 8075.700261 5203.849766 4582.985396 3559.121046 4097.859690 5859.840592 5242.276232 6138.462386 4846.415520 2653.482993 6579.398619 5172.392001 7364.367015 1827.306174 3758.651190 7013.829784 20391.697917 23916.986030 25961.806133 19165.340020 17790.377806 17160.528258 13320.257348 17189.512073 10930.983398 11561.490299 16291.400610 7802.848355 2466.412196 20631.509132 22358.501021 21396.794586 16447.892271 19604.738663 13251.345068 14493.154591 11882.967617 16931.953615 11453.842442 8504.788361 8633.517634 4116.184133 20819.563450 21679.077822 20134.853781 11504.459473 18829.068651 12291.422097 15734.954360 12320.699843 6115.003758 9741.968705 7372.435739 7564.164517 6570.727683 20317.114563 19897.381379 17378.492041 11619.958044 13370.136773 9205.342053 12915.477763 8926.526942 8683.915872 11698.656311 8786.154234 10873.640204 5925.274503 19739.410895 19755.182333 18426.866437 18302.873380 8058.086839 9529.942268 11725.052101 17542.209109 12407.055575 12655.110718 7448.316430 8416.250189 3270.862466 19942.627807 21103.234266 21180.798912 17335.165782 14284.168411 13999.714678 13339.161467 14511.250068 12029.923448 5998.014777 9623.769502 3964.360902 3216.783788 20372.060264 21670.262755 20200.653225 16240.962295 16108.683587 13504.757399 10347.092851 9982.385913 6922.535732 13705.524536 8009.592848 12141.107111 6050.924366 20440.494762 21090.481175 20752.317553 16754.228886 13140.546215 14098.484268 9285.187081 5699.336479 14441.625506 8618.492923 6139.853284 5727.005687 2598.720583 20181.799098 20200.763897 20118.615894 16217.806649 16659.165774 15872.896108 9978.459719 10322.807187 14151.035676 7613.786591 5359.833610 6010.171671 6279.961669 19731.042584 18997.439060 19768.950975 10628.398905 18821.510124 17439.089978 8972.702147 11186.762544 9650.601633 9192.992112 8016.260554 5900.818188 3413.314044 19487.909348 17834.106699 16104.020165 17532.514234 15516.072701 16311.443364 20476.270504 7401.735314 4379.109676 11287.927846 13951.896030 12635.020667 8249.253980 19581.867320 17875.529976 15703.479297 14634.249998 11144.731858 17583.412094 5884.980880 9815.189347 9679.702664 16055.337074 5120.353568 9113.499254 8468.682146 19657.812579 18845.937844 17450.096206 21250.322279 16445.739917 11188.009301 11629.140924 15049.169280 9135.661857 7872.833410 16355.045421 6202.413091 6552.657418 19665.882431 19907.866505 19017.135732 13593.529223 6053.751989 12876.092729 4767.862818 4752.440270 12564.958965 14860.712664 10697.699116 6414.514045 7104.270231 19376.635187 18368.809836 15445.604725 11391.838296 15049.154000 16601.303198 10251.584083 15864.852327 6247.629698 6938.590991 8492.383529 9851.425085 7216.527948 19003.135953 18041.551621 16168.747278 13616.456337 11248.516768 15927.768062 12841.702815 11708.991414 14381.554086 9946.842713 5289.819516 9666.341512 4560.401877 19001.137389 18757.240030 16568.453222 14684.970728 9824.584170 8991.464650 6235.405180 17088.076642 5564.933435 12244.299070 6606.006091 8276.523339 4593.209318 19132.063755 18805.411183 16382.357550 17920.579082 16633.036363 13484.662817 8916.995961 15793.533314 7721.412221 11488.406517 10662.815069 6020.722534 6834.599017 19121.704913 18791.356696 17032.920021 15483.503887 11809.496461 11847.792482 9915.354444 10435.583241 9518.375443 11788.256145 8047.411836 8544.653433 4568.715963 19043.279352 19552.328454 19912.557635 13399.443007 19545.710861 8226.393377 8540.127746 9779.786922 7463.177438 8730.975705 8318.819943 6646.303732 6659.548002 18749.695503 18287.501384 19876.164203 18884.142066 15485.101192 14442.903798 9590.416366 7113.906167 8409.854626 3624.183014 8566.713231 8759.252917 5894.697483 18583.915391 16957.879912 16464.002083 17038.710335 15257.463961 17300.141749 9951.508678 13671.568876 8319.074061 11132.538398 3418.820522 5726.847261 9637.239104 18600.347766 17751.522981 17113.294271 17341.280637 15786.053626 12860.506516 15307.433684 12408.536794 10512.447065 11988.863630 4920.238777 4380.325356 3967.506569 18508.848273 19640.300467 21983.581676 14643.368900 13483.786218 12431.139649 11719.602852 10389.153397 12031.633091 13481.321003 8056.774216 7187.509410 5906.800643 18554.582164 18468.692418 17789.795339 17498.801922 14136.822685 14824.352718 14930.650030 10307.330388 10386.619138 5619.954940 6223.784156 7355.750110 2742.185183 18507.828404 16981.357051 12410.109769 15959.018507 8865.508366 3530.618791 13019.116641 9675.454500 12708.551469 7680.431838 6637.463805 8583.135973 8103.455451 17933.317078 17201.099041 17427.744525 9326.583538 12973.037973 11200.231683 7773.982332 6585.919871 7222.929955 6848.303742 3810.349687 6012.483975 7876.731936 17365.894630 16187.776305 21041.418352 11093.652535 5809.289148 6375.754087 6987.331086 5883.826834 10034.954500 6231.124107 6922.277653 7932.137485 4551.390961 17417.956304 15801.250897 19032.551209 13514.324374 21575.323913 12114.266389 10456.268053 14190.682688 9363.537121 7098.591254 6725.314370 5358.716941 6422.515380 17845.937422 15777.309492 11164.584100 14120.180096 15142.201415 19143.100827 7699.054266 15335.305305 11279.551539 9009.541667 4038.087465 1629.867787 2559.247848 18102.298247 16910.358020 11702.040544 18249.935768 9200.845907 15342.226516 12463.762066 9160.823758 7208.977858 3854.511713 7156.377351 2671.610520 5734.373563 18048.014190 17463.636086 16128.935191 16188.114511 14993.214485 9520.452562 10296.365391 6413.147293 3778.541660 7412.263141 3505.448558 6132.943753 2390.050950 17793.662899 17464.872217 18829.066060 11345.384218 14030.410171 8638.928053 8695.210390 4790.681107 5010.370249 4373.258023 6938.019486 7684.181950 5612.207080 17465.741121 17211.055876 19125.630829 20799.264381 11036.318820 8613.854580 6125.071866 9556.797999 12118.478835 9730.637318 8068.319716 3536.946964 4277.568771 17210.867707 17339.600434 16608.386701 12331.111297 19261.574615 12435.072163 8050.476761 14152.407525 4111.979219 7862.159096 8942.491829 8322.262014 5678.665180 17047.504324 18995.226902 18482.033393 16946.405704 8751.601526 15587.373567 9431.622447 5689.851848 8829.815669 5931.970005 5720.373764 4853.284367 2834.390116 16874.444020 21185.809886 23180.641659 17605.291741 10803.272987 13235.694175 6392.275321 5821.471317 9415.146324 9906.472703 6099.406517 4612.611720 985.961861 16699.174179 20229.983134 20113.422661 10369.827363 14047.932239 5971.338342 15250.292377 6925.307827 5328.463701 8883.763648 7245.001548 7000.263442 4009.552162 16596.579537 18524.259121 17402.393556 14334.304404 13036.327126 13557.595273 10494.969660 12146.661666 14550.560004 5343.852477 9471.743353 7611.221163 1909.998400 16527.567971 16523.344417 15153.402735 11591.432779 14845.491442 13268.737552 13148.943030 6382.212618 6663.865498 6959.477518 5468.633839 8901.769833 5615.480842 16610.277349 14496.548904 12016.131866 17669.697311 12246.831429 17599.782321 8898.148734 8908.445812 8994.325732 12225.928500 7429.594200 7460.598420 5482.651436 16768.549833 16393.636563 18276.961552 18232.203601 13875.746049 9827.282477 10844.632193 6275.865164 11514.320545 7828.706881 3567.797745 3538.260988 5205.996159 17014.474787 18798.702723 20001.779906 10906.222353 12144.373456 16098.782312 11560.346805 12510.371231 7894.924625 4764.367893 5542.444111 11715.669516 2159.617519 17219.354506 20152.087926 19903.949122 19208.195591 11695.600146 5083.405954 12912.006792 13516.788159 11349.261370 11263.517904 5502.610331 6749.816955 4480.683796 17025.821283 17852.006582 14193.663043 12389.499638 11471.310478 14679.912010 10276.381389 9196.422952 9778.257363 7023.373833 10551.512771 6720.522894 5982.728111 16753.593437 16394.289943 12560.717490 9880.084082 11540.715806 11811.802553 7610.606131 4457.267182 6545.972640 10521.837880 8894.132451 6951.885852 6240.700704 16717.655958 17060.222883 14306.644973 12988.086768 13555.305943 16002.006645 10630.250832 8470.955867 2386.785779 4163.750458 10150.646893 3487.415841 8649.577706 16642.073317 17312.987987 14403.805441 15363.177578 8832.221156 14568.860485 10114.479683 10597.349828 6578.346418 8687.285717 8037.900523 10585.480253 3378.134644 16494.670684 17058.772500 14896.880877 16789.094563 9498.340379 12240.870259 6760.652632 8264.697213 5928.697467 10174.917871 2184.546877 6428.523866 5650.296934 16251.133553 16604.429790 14888.550437 15688.624513 15729.339092 11091.033106 10390.037888 10980.452433 10292.103654 8313.954906 11398.572354 595.158886 5413.808231 16058.440449 14992.613657 10366.792980 13715.362184 10079.674463 16242.852984 6544.785790 9955.917567 7696.161051 597.278939 13286.000380 6748.942860 6500.976842 16067.321684 14518.078468 11789.290756 14591.943113 12121.189542 8762.722664 10335.611994 12484.225218 10012.733189 4995.559600 4798.170500 8896.462613 7199.517346 16255.073907 15730.733575 15030.817739 11526.965767 14047.331534 5143.603043 10801.766689 7004.218312 10712.471633 4909.424055 9736.177533 6322.691968 7836.695796 16352.039893 16114.323747 16020.207384 15892.603100 10916.627391 14167.408780 4121.660713 8363.114742 9577.629042 8887.720020 9481.667558 10160.948005 2876.802448 16311.179186 16077.228879 15383.901416 14780.303223 14028.892918 9279.505067 9191.786428 8690.610471 7675.383336 9412.913470 7333.344383 9288.378831 5259.893756 16002.958057 13975.566406 11345.803150 12116.994356 12541.082818 15828.655413 11993.657286 10444.421113 9479.853248 4357.560273 8201.028965 4242.918757 2616.995258 15736.582256 14371.446058 13156.999480 9706.603124 8527.487159 6832.106086 8911.332329 12214.701538 11740.988609 8023.796277 7061.954643 7391.906844 6406.129824 15636.598854 16486.011111 15760.854805 16437.969910 11512.136824 11299.550198 9263.175587 12279.950764 12377.953852 8411.078025 11010.192592 5755.334719 3217.685938 15658.953841 17498.364002 16438.484051 11130.788816 11271.232138 7983.133680 11303.114297 9673.100309 9316.617643 10081.460220 3790.537955 2733.774650 2100.120309 15858.987978 18240.613581 18149.224615 15928.817152 14125.560472 11806.017041 12401.005760 12993.143434 9043.463943 8445.284756 6700.251741 8292.246569 3676.557541 15976.648221 17814.463851 18611.290226 11421.845349 7531.121128 12495.631201 11617.361341 9140.768828 9912.837250 4413.548356 7068.822421 7952.466844 4058.917313 15474.607453 16808.435288 16162.351683 10472.391053 10789.200454 11258.327447 12738.909176 5077.778374 10507.032063 10346.300612 9736.102227 6183.218047 2277.143234 14851.933387 15148.079417 13917.014475 11349.805462 9706.885263 12890.933842 13512.292947 11108.373069 13916.790332 12658.529572 6494.504872 3061.296477 7317.985036 14816.323350 15195.124092 12853.850309 13630.499607 10722.937857 7946.777687 10093.784564 10513.499929 6722.981575 2396.990838 9392.210326 3746.123858 4542.247086 14953.600847 15567.972705 13649.639695 15887.105799 11221.665200 8499.039569 6370.193380 11085.096982 8936.461321 12204.462713 6609.679246 5304.756656 8105.793406 14961.110866 16254.194085 15994.321423 15637.690793 11411.702492 11177.765788 13022.517276 10635.816137 9695.710025 9850.132093 5395.897004 4031.898312 3250.809260 14994.353565 15614.821703 15974.191034 11684.043293 11510.286588 12064.838239 10633.164440 15059.524704 5627.838189 14078.966038 12585.656956 6099.262390 4454.509713 15059.207792 14478.859748 15658.855461 14633.986426 8065.447280 9901.134216 10274.121005 13893.949957 8223.823942 12130.473166 9398.639282 7087.266548 4347.624628 15052.533761 14309.358727 15601.587450 13235.300835 5509.467716 10845.277668 11372.916201 7319.636289 10907.478758 12627.356588 6707.859493 6529.692799 5027.489048 15202.582696 13548.760062 12686.027415 12907.843739 14865.100383 11545.988203 12041.258235 12443.450439 12656.749058 9552.790650 4100.447300 3274.151976 2466.001680 15394.863156 13252.943247 11094.599933 11382.687429 12544.810673 13422.641818 9814.255742 10078.257683 10404.541717 13704.235069 2588.305076 11154.130395 4314.539263 15530.727835 14831.054091 13874.644202 12640.168201 11436.165290 8294.922104 14788.906093 10915.826165 12542.570151 12684.404304 6861.230966 4790.990985 5544.883980 15536.441739 14756.912674 13457.471749 9882.000290 10648.911345 13361.040007 12674.489497 5819.101684 11462.200404 11840.354818 12312.692283 14941.456061 5734.424467 15360.589241 14002.447331 12331.253510 14357.863498 14493.645656 12963.776817 14655.270232 8306.938614 8497.696402 13137.267279 13599.455179 2621.905438 5372.048484 15310.586588 13590.983769 11339.184031 11906.984512 9775.634654 9682.637333 11337.753327 13494.786760 10545.216018 4658.808330 5681.799598 9487.354283 6079.522514 15331.028853 13528.744845 10922.726664 11259.938475 10080.920857 12362.456497 12129.278583 8737.792598 4535.980434 10829.643648 13747.328973 5283.776910 2414.969081 15116.290022 12364.961188 8945.849634 10007.125980 11606.823457 11100.194344 12806.507164 10464.299316 9083.911405 10314.653525 14234.059234 3633.315052 4303.225824 14907.825701 12896.609292 9994.354281 16586.568868 12514.169626 11774.352520 9904.160263 6237.497483 4014.167172 12568.940243 8359.996474 10968.024629 4282.541243 14759.852303 13797.741895 11762.689245 12626.584285 14093.749467 10949.537247 13012.300179 15672.136969 12905.695142 9546.120917 8658.773734 9220.428428 5525.503281 14444.686400 13913.929027 10780.680278 8283.338411 13245.252829 10973.672549 12115.341567 5021.200386 12965.624801 12225.080418 10184.456920 3413.785074 5694.204601 14018.879143 13314.963984 10963.537614 13426.973624 12443.211053 11571.724991 15128.769677 12372.765556 7370.944401 10811.443599 2401.592739 3233.873426 7340.341720 13537.098651 13831.602051 12694.755216 13576.606762 12248.651651 11781.987881 12268.153897 6429.568558 11095.597058 5189.288050 9704.707861 10851.944085 8314.998949 13195.254846 16027.584372 19421.516641 11966.944839 11485.104225 9993.565765 11014.571659 12525.653544 11843.626243 12820.520233 13429.357426 10108.621766 3298.306168 12924.224365 14550.771899 16806.481863 9403.527110 9403.860361 13403.334582 14994.356858 12862.957134 11808.068696 12490.324952 12895.812400 13055.783509 13498.955440 12821.691097 13447.469983 16267.869961 13476.097579 11126.653578 15560.584192 13726.284302 6249.563725 12191.563154 10732.547616 12726.236895 11953.503302 11177.432026 12835.774944 12752.246797 14025.276820 11679.644562 9754.857963 11473.791683 13909.150556 13440.196026 11231.675083 12773.793566 14632.119724 15303.121522 11276.465186
</DataArray>
<DataArray type="Float64" Name="Velocity" NumberOfComponents="3" format="ascii">