<VTKFile type="PolyData">
<PolyData>
<Piece NumberOfPoints="2177" NumberOfVerts="2177" NumberOfLines="0" NumberOfStrips="0" NumberOfPolys="0">
<PointData>
<DataArray type="Float64" Name="Pressure" format="ascii">
 13205.261486 13972.559192 15065.659851 16010.835676 16473.331008 16289.309386 15422.510454 14155.989506 12876.960384 11838.409300 10982.991411 10169.443884 9327.897796 8461.609505 7557.925987 6566.646761 5567.388336 4603.307312 3595.170458 2579.019318 2083.149108 1717.368933 705.813614 -114.966171 -705.369430 -1904.429874 -3164.123711 -3610.543427 -3232.514135 -2442.452310 -1615.450595 -954.179054 -509.857710 -248.552813 -111.060513 -45.588192 -17.211384 -5.981719 -1.915189 -0.565264 -0.153870 -0.038642 -0.008955 -0.001915 -0.000378 -0.000069 -0.000012 -0.000002 -0.000000 -0.000000 -0.000000 -0.000000 0.000000 0.000000 0.000000 0.000000 15123.422986 15661.288841 15873.007118 16184.410995 17361.198667 17879.961225 16343.373879 13954.300704 11850.822590 10660.695142 9944.273506 9279.439781 8598.663920 7786.626009 6777.542418 5508.192207 4557.752203 4093.182204 3434.866785 1422.080556 1235.043623 1757.468736 -803.046273 -1071.948292 -380.185634 -2254.624362 -4231.147482 -4538.069278 -3756.163131 -2672.113158 -1709.386305 -992.032949 -525.052764 -254.633309 -113.483694 -46.537926 -17.570415 -6.110308 -1.958277 -0.578668 -0.157724 -0.039663 -0.009204 -0.001971 -0.000389 -0.000071 -0.000012 -0.000002 -0.000000 -0.000000 -0.000000 -0.000000 0.000000 0.000000 -0.000000 -0.000000 17982.693390 17372.618764 12362.010500 8588.782611 11978.299415 13506.819250 11881.405027 10787.359452 7138.937682 5385.897958 4888.436414 5195.252932 5575.194371 7163.873288 5705.000166 3179.102933 2406.759200 7272.917596 5771.416747 -2394.923326 -196.993281 4121.729631 -5130.327832 -2979.808080 1857.258328 -2840.755550 -6138.910394 -5875.977393 -4568.787585 -2943.208080 -1799.209330 -1021.732145 -533.823799 -256.664969 -113.682025 -46.397936 -17.449836 -6.048342 -1.932769 -0.569629 -0.154888 -0.038865 -0.009000 -0.001924 -0.000379 -0.000069 -0.000012 -0.000002 -0.000000 -0.000000 -0.000000 -0.000000 -0.000000 -0.000000 -0.000000 0.000000 -0.000000 -0.000000 0.000000 0.000000 -0.000000 0.000000 0.000000 0.000000 0.000000 -0.000000 -0.000000 -0.000000 -0.000000 -0.000000 -0.000000 -0.000000 -0.000000 -0.000000 -0.000000 -0.000000 -0.000000 -0.000000 -0.000000 -0.000000 -0.000000 -0.000000 -0.000000 -0.000000 -0.000000 0.000000 0.000000 0.000000 0.000000 0.000000 0.000000 0.000000 0.000000 0.000000 -0.000000 -0.000000 -0.000000 -0.000000 -0.000000 -0.000000 -0.000000 -0.000000 -0.000000 -0.000000 -0.000000 -0.000000 -0.000000 -0.000000 -0.000000 -0.000000 -0.000000 -0.000000 -0.000000 -0.000000 -0.000000 -0.000000 -0.000000 -0.000000 0.000000 0.000000 0.000000 0.000000 -0.000000 -0.000000 0.000000 -0.000000 -0.000000 -0.000000 -0.000000 -0.000000 -0.000000 -0.000000 -0.000000 -0.000000 -0.000000 -0.000000 -0.000000 -0.000000 -0.000000 -0.000000 -0.000000 -0.000000 -0.000000 -0.000000 -0.000000 -0.000000 -0.000000 -0.000000 -0.000000 -0.000000 -0.000000 -0.000000 -0.000000 -0.000000 -0.000000 -0.000000 -0.000000 -0.000000 -0.000000 -0.000000 -0.000000 -0.000000 -0.000000 -0.000000 -0.000000 -0.000000 -0.000000 -0.000000 -0.000000 -0.000000 -0.000000 -0.000000 -0.000000 -0.000000 -0.000000 -0.000000 -0.000000 -0.000000 -0.000000 -0.000000 -0.000000 -0.000000 -0.000000 -0.000000 -0.000000 -0.000000 -0.000000 -0.000000 -0.000000 -0.000000 -0.000000 -0.000000 -0.000000 -0.000000 -0.000000 -0.000000 -0.000000 -0.000000 -0.000000 -0.000000 -0.000000 -0.000000 -0.000000 -0.000000 -0.000000 -0.000000 -0.000000 -0.000000 -0.000000 -0.000000 -0.000000 -0.000000 -0.000000 -0.000000 -0.000000 -0.000000 -0.000000 -0.000000 -0.000000 -0.000000 -0.000000 -0.000000 -0.000000 -0.000000 -0.000000 -0.000000 -0.000000 -0.000000 -0.000000 -0.000000 -0.000000 -0.000000 -0.000000 -0.000000 -0.000000 -0.000000 -0.000000 -0.000000 -0.000000 -0.000000 -0.000000 -0.000000 -0.000000 -0.000000 -0.000000 -0.000000 -0.000000 -0.000000 -0.000000 -0.000000 -0.000000 -0.000000 -0.000000 -0.000000 -0.000000 -0.000000 -0.000000 -0.000000 -0.000000 -0.000000 -0.000000 -0.000000 -0.000000 -0.000000 -0.000000 -0.000000 -0.000000 -0.000000 -0.000000 -0.000000 -0.000000 -0.000000 -0.000000 -0.000000 -0.000000 -0.000000 -0.000000 -0.000000 -0.000000 -0.000000 -0.000000 -0.000000 -0.000000 -0.000000 -0.000000 -0.000000 -0.000000 -0.000000 -0.000000 -0.000000 -0.000000 -0.000000 -0.000000 -0.000000 -0.000000 -0.000000 -0.000000 -0.000000 -0.000000 -0.000000 -0.000000 -0.000000 -0.000000 -0.000000 -0.000000 -0.000000 -0.000000 -0.000000 -0.000000 -0.000000 -0.000000 -0.000000 -0.000000 -0.000000 -0.000000 -0.000000 -0.000000 -0.000000 -0.000000 -0.000000 -0.000000 -0.000000 -0.000000 -0.000000 -0.000000 -0.000000 -0.000000 -0.000000 -0.000000 -0.000000 -0.000000 -0.000000 -0.000000 -0.000000 -0.000000 -0.000000 -0.000000 -0.000000 -0.000000 -0.000000 -0.000000 -0.000000 -0.000000 -0.000000 -0.000000 -0.000000 -0.000000 -0.000000 -0.000000 -0.000000 -0.000000 0.000000 0.000000 0.000000 0.000000 -0.000000 0.000000 0.000000 -0.000000 9999.002722 14442.781778 15786.420919 10639.413983 9476.585462 13748.464019 6763.766353 1184.111587 -1239.536315 1335.340581 -2127.197297 -1730.344250 -1124.315097 -4406.965098 -1620.632304 -1202.820782 -1145.488144 -753.440657 -413.505551 -204.372269 -93.905591 -40.726501 -16.713518 -6.444276 -2.309497 -0.762047 -0.230072 -0.063358 -0.015899 -0.003637 -0.000759 -0.000145 -0.000025 -0.000004 -0.000001 -0.000000 -0.000000 -0.000000 0.000000 -0.000000 0.000000 0.000000 -0.000000 0.000000 -0.000000 -0.000000 -0.000000 -0.000000 -0.000000 -0.000000 -0.000000 -0.000000 -0.000000 0.000000 0.000000 -0.000000 8616.407617 12109.174439 20934.573417 19492.715916 12604.434247 10311.130912 9606.203511 5174.648890 8844.927251 5985.053069 2929.403159 -3963.969268 -7428.989860 -4368.236191 -1950.805455 -1623.756383 -1234.241963 -764.890645 -414.362148 -204.709466 -94.306048 -41.020641 -16.878631 -6.523314 -2.343061 -0.774825 -0.234438 -0.064696 -0.016268 -0.003728 -0.000779 -0.000149 -0.000026 -0.000004 -0.000001 -0.000000 -0.000000 -0.000000 -0.000000 -0.000000 -0.000000 -0.000000 -0.000000 0.000000 -0.000000 -0.000000 -0.000000 -0.000000 -0.000000 -0.000000 -0.000000 -0.000000 -0.000000 0.000000 0.000000 -0.000000 7301.078538 8323.365756 11195.974417 12558.457462 10690.746051 8034.148094 7632.214016 5406.632416 3975.041391 231.187179 -3249.176258 -6095.137019 -6284.945194 -4287.535644 -2808.258082 -1988.540003 -1306.515604 -768.301045 -410.023648 -201.867878 -93.001987 -40.483770 -16.660976 -6.434406 -2.307549 -0.761524 -0.229895 -0.063299 -0.015882 -0.003632 -0.000758 -0.000145 -0.000025 -0.000004 -0.000001 -0.000000 -0.000000 -0.000000 -0.000000 -0.000000 -0.000000 -0.000000 0.000000 0.000000 0.000000 -0.000000 -0.000000 -0.000000 -0.000000 -0.000000 -0.000000 -0.000000 -0.000000 0.000000 -0.000000 0.000000 19709.810410 17490.750713 5651.954015 976.342075 4539.787952 6132.773713 5439.088239 6030.025364 3554.401655 1076.685416 -731.804356 2207.929835 3637.309353 6914.689069 4525.858183 2973.394407 1449.614610 5891.073518 -3986.312173 -13137.699763 -4006.186729 5419.875439 -7604.952084 -4050.866047 2747.579851 -3662.098636 -7150.976046 -6429.545574 24067.641767 18717.133206 4012.263459 8059.475112 11838.167334 6154.217316 3556.374347 10478.470896 1646.823754 12446.250518 5385.715784 12948.680222 6546.149940 1931.754330 9218.439191 6129.780072 5911.051918 4340.431377 5453.907826 5772.052475 4693.845522 4337.938775 6626.189412 8450.649649 6308.935804 7837.180220 1548.540539 2945.551788 28350.695897 23496.674912 12814.406717 5651.596973 10569.513320 11371.014870 8582.074206 7312.121869 8913.201867 11630.344182 9162.620545 11584.146961 10760.573254 5088.597551 8805.735010 7796.447977 7248.754481 7739.968848 7209.366682 5657.973252 5974.774102 7114.530104 5781.095782 7006.190133 6728.551620 2195.713985 1643.274168 6806.165036 30235.595184 25120.366476 11028.929471 9251.995642 16071.896749 8107.212331 8016.164339 6133.556749 11351.380476 15377.072915 7196.701242 7447.574259 11359.570258 4677.511251 10697.982518 6907.471652 9550.594520 8270.344736 6151.343687 6241.738467 8436.945419 8120.945253 5073.067106 3601.849746 5633.694060 1380.968555 1591.384813 2161.889896 30707.152443 23334.641507 7284.515041 10315.686871 10403.194143 9640.507569 10183.106617 10802.364140 14130.446878 10048.212822 6218.696016 10119.060097 7467.248181 9729.194581 9578.162011 5600.676019 8092.483219 9223.480258 6847.995065 4025.480025 4750.175743 2769.786339 1072.090015 1620.916123 3300.488896 2575.937704 411.171175 640.200184 31122.663039 23512.189616 7993.038337 10496.563637 7292.220112 14706.960581 11406.363484 9670.233643 9458.221679 7297.698247 10238.003579 13546.088051 7452.398382 7064.988680 9201.125771 3613.437339 12084.379249 12333.011355 5023.679841 2451.067344 6017.637545 7478.627620 5851.826644 2927.529046 1951.629226 3909.639712 -1048.942265 -552.409339 31147.575320 27305.685534 14153.840941 7655.233377 18639.368353 17833.681306 12635.899252 11608.332724 13746.454905 12374.134349 9071.343062 7860.130178 12789.550661 11458.012979 7138.369639 8244.459563 13747.052943 9433.970964 8330.359330 7976.045430 5415.852275 2988.059426 1443.343983 -58.564057 -174.116010 649.382842 -2153.229309 432.243289 30761.975473 23154.550958 5595.034995 10635.879177 13930.920193 16777.216523 16884.626100 6916.915411 8849.131129 15546.673008 10232.999964 9379.777376 6042.094370 10137.413450 11437.655000 11180.001416 9317.673181 5023.150975 9101.137828 7062.291975 5515.121741 4303.267008 3213.375645 4655.031479 5250.981442 4074.796890 -1030.641135 1097.902217 30243.390843 25771.479832 12555.683198 11006.483965 13654.849157 13987.728573 8117.377813 16828.957830 15599.119470 10972.267143 7791.922279 15137.403237 11279.825250 12897.941626 7989.786338 7186.603327 12327.713310 8329.912510 1388.663436 7166.679475 7056.670697 2904.453798 2641.618248 3416.135290 3484.150828 1265.323866 -2778.188953 -188.091844 29267.427704 25060.299716 11270.659033 20370.210600 16018.161758 17407.348328 10808.037625 18215.632131 14040.731981 14934.317781 15227.699476 12887.689140 9022.651363 10245.955032 10097.141357 6486.775765 15209.758937 10407.369101 5847.774987 8559.962926 4723.996306 5095.217320 4160.449218 3333.192500 4078.894842 3125.139543 1273.829848 2005.561490 28945.270410 21936.399623 5665.854115 13507.677269 18019.666794 24160.281786 10791.156236 12885.528597 12880.436027 19644.682983 13451.204681 9134.138267 18452.382065 8901.916865 11387.843457 10207.117381 8475.643466 15780.521798 4236.329988 4240.910216 6750.382681 6694.962164 6501.335558 7068.436279 6148.140772 1157.598594 1534.414721 610.718597 28806.249042 23987.948179 13892.837141 15613.008633 17211.640913 17709.595170 18959.663256 19287.777724 16188.714285 8744.133597 9129.176604 15810.903609 16878.160527 12635.170967 9277.065070 12991.723675 5352.579910 17080.945053 6434.034894 8719.336898 2802.910481 9602.402580 10667.791178 8027.190378 7459.199046 1103.743898 2497.735225 2401.266631 28507.045173 25410.879732 16556.163229 16663.601241 18094.942455 16477.996889 19977.157331 12475.367872 14018.506182 13679.608545 16400.079773 14405.398209 13672.987593 10136.230570 9688.048726 13904.043516 9955.887845 822.433960 11035.507921 9239.226573 9677.840410 1443.579342 11620.637965 4107.901697 7551.900107 2652.507501 1754.589656 4626.680633 28428.466618 24564.053291 14267.679782 21437.536632 21156.824464 23058.244890 16073.452069 16760.261430 16302.032912 14374.458036 14747.868576 17874.990285 15386.084327 1825.997133 236.458165 3631.088071 7681.224012 2811.392282 10890.616594 11979.535758 -227.230353 4854.975325 12082.370869 8333.195480 3087.181324 8853.910887 6731.722618 1368.344946 28482.703960 23792.875188 15876.666936 24403.692930 23103.673196 12558.707819 23714.214929 26068.433496 10206.867607 11644.858261 16922.347952 10663.985232 -6843.414207 -10506.712321 -484.743625 -453.446900 1814.141985 -3459.776739 4077.263837 -6749.636917 1244.801988 969.623504 3840.647043 -2977.081955 -8183.138479 3247.313093 -1112.965034 3354.958286 28348.363974 23555.984491 14141.284496 23502.018788 26666.321941 22070.877837 14172.688221 23648.587137 18799.699852 23642.108172 15706.278304 6046.821094 -2038.445997 28092.675492 23775.073890 13778.453531 25327.914629 19512.974437 30054.985547 15611.480624 26310.350488 7407.232754 -404.128516 8410.790469 -65.086741 12480.246838 27628.196373 26038.865854 21417.589459 18467.373376 30269.634443 19285.399577 21725.961180 15073.735695 24847.932506 14901.496576 6255.796694 -2785.066807 11269.870789 27069.580522 26074.481669 17931.379140 21537.169004 31097.542641 15407.469374 26036.766487 15421.146171 14004.134604 7661.030566 11155.241913 -1149.396007 6705.950168 26846.176161 22463.514837 15206.577280 22988.031400 27256.356058 22631.740033 16442.853893 16870.091203 14879.134962 1990.018899 -819.288503 4984.202063 6906.440489 26673.878558 22856.553911 17034.502854 24461.363788 23775.702812 25169.065464 16105.544593 19572.676025 21289.238064 2224.324757 1570.958633 -3791.049470 470.315800 25975.913452 26593.197369 22839.367675 26429.715964 25038.970536 18739.032253 24598.370704 10398.259406 8486.244926 19536.810250 17762.700688 5409.946071 259.905037 25005.023603 23885.612667 15898.116224 22761.333700 26736.515339 17711.901808 21435.155211 16570.662522 13333.963663 12985.661784 3944.646494 4869.488617 -3645.340849 24002.072355 24997.748022 22427.704964 24546.310238 27392.905024 18851.820167 17310.878079 15072.596412 12826.938335 7957.674027 6038.297136 10620.086156 -5775.213865 23088.963707 26273.259509 30947.474688 27521.826905 28651.745238 18748.019680 19940.651672 15685.101916 15333.660788 6478.892805 3200.568917 -710.452920 -4201.242436 22431.753303 24710.639101 28199.618346 21640.389508 29169.850022 18724.527202 21614.102162 15283.183718 13665.119068 10154.233273 -1164.061370 -1706.087172 15126.025253 21666.569372 24016.111839 23949.714224 27029.885141 29484.242033 20460.490785 19714.103172 16141.194817 11848.324071 11277.175535 12654.686206 -2727.434885 12083.251991 20824.543236 23269.706532 26409.528808 27975.177766 28857.268399 22598.669735 17737.165167 16386.480771 11646.622454 10861.121908 5846.536214 14472.496883 3634.489421 20083.133061 22618.978903 24520.476692 28055.556187 26767.775000 24248.661575 19409.417538 17540.578022 15901.867102 10989.409405 2227.246892 1037.930195 6005.128405 19580.338579 20687.995483 21251.057009 30378.043243 26025.397638 24351.594419 22376.517273 15545.456689 18423.908168 7196.363942 10455.869814 8179.213178 1416.894597 19058.247949 21913.179375 27497.450292 29700.113804 27440.001519 23319.977346 25144.906949 12143.279182 20590.640675 7047.826644 10897.297290 7454.910220 1870.497606 18602.265253 20691.083358 26916.504275 28156.159546 28900.687207 20860.194250 26590.881195 13027.104272 20833.209603 14892.124039 11153.465556 6549.925640 68.877362 18224.352949 19813.508891 21465.023531 26814.185321 29560.378112 19861.422360 25517.711735 18269.487440 18100.447409 16585.364412 9418.769876 3571.092687 12883.305941 17907.658031 19243.721569 18604.189986 26895.977945 28949.137020 21782.410098 22884.196377 21404.178466 13712.751192 17042.304663 1765.565477 8290.869473 -4206.977726 17586.111457 19721.882229 21507.498760 29405.074798 27076.549685 23938.122845 20479.336620 22299.903338 10624.135905 18687.471915 -2745.113356 13375.313247 5629.929217 17289.319941 19625.882275 22472.357586 29501.946246 25808.655301 24749.970858 19252.171838 21741.590747 10690.318849 19453.901351 1344.782606 13444.326852 2446.671447 17101.793202 19260.161076 23001.086316 29536.646247 25603.452588 24645.924665 19575.695290 20207.751953 12345.797469 16699.383766 7336.432825 10271.184000 5103.549471 17104.532637 18932.349916 21966.785698 31649.250361 26279.670625 24492.221113 20232.926029 18593.325599 14445.599848 12194.814915 11437.754009 3844.786085 6980.969899 17235.585094 18979.692073 22259.877179 33347.665771 27380.707584 24756.283399 21115.046236 17358.441758 15974.347534 9264.909048 14441.819029 -925.224186 10644.327353 17363.510606 19596.943123 24782.882381 33059.651250 28170.405690 24928.433982 22244.386052 17352.145838 16531.966701 8274.194598 15543.141223 -3029.659852 12730.401665 17429.030892 20180.680772 26089.995498 31836.999902 28610.027581 24989.189437 22617.542437 18062.183767 16909.858342 8906.833946 14757.063142 -2747.518178 14514.528356 17436.378554 20493.319561 26201.585981 30624.027971 28582.459214 25077.120814 22352.509672 18538.458077 16920.093279 10324.105928 13672.513387 -649.302086 13439.624402 17396.070223 20622.686749 26007.617649 29742.818397 27769.708708 24901.154038 21959.765307 18821.154470 16534.869911 11352.210671 12343.202878 1540.127290 10444.345160 17320.922350 20668.459857 25504.980971 28911.252107 26659.037417 24375.495658 21304.638008 18780.179383 15914.342028 11831.274279 10954.316486 2645.050145 7761.123986 17226.097285 20628.333774 24853.127311 28232.731476 25671.433140 23682.214694 20516.712605 18330.422624 15010.863760 11739.862968 9972.737967 2817.425901 6110.755253 17124.908240 20541.320199 24119.859166 27676.106418 24806.513638 22972.505328 19920.354803 17845.560415 14157.224579 11296.932372 9400.288670 2633.904283 5242.486064 17025.385929 20441.154573 23360.987630 27266.052550 24226.387962 22328.662993 19413.943060 17480.915841 13724.436753 10934.159581 9259.879112 2496.762397 4787.983642 16930.607758 20350.033539 22659.343114 26974.101223 23920.384275 21900.664355 19044.287919 17289.886473 13775.892503 10768.133286 9480.039060 2625.339531 4554.802810 16840.482698 20284.780093 22033.069168 26698.041526 23733.248637 21733.109618 18861.980600 17220.753208 14171.079588 10721.396077 9826.292663 2960.830194 4391.238903 16753.202488 20270.106738 21605.001632 26522.265633 23622.764264 21752.839623 18747.930797 17066.650758 14627.787302 10632.894371 10014.347074 3277.683999 4147.400914 16667.303215 20315.066263 21473.403311 26443.864797 23473.474319 21851.625979 18673.487102 16738.501487 14857.567086 10299.241452 9811.322811 3367.982176 3749.002526 16581.864331 20415.682526 21656.851322 26503.596628 23296.409849 21934.489426 18589.235135 16220.061984 14715.186364 9687.100124 9225.787163 3189.692219 3208.599537 16496.967763 20559.925230 22144.736085 26775.804318 23206.148087 21990.293083 18510.227644 15652.337980 14318.650167 8976.697967 8473.491422 2859.371912 2607.283655 16413.855340 20724.878045 22831.460625 27222.262371 23291.650464 22070.731047 18528.113806 15270.500775 13941.279734 8430.788939 7830.524454 2573.977043 2075.107720 16334.191195 20887.446318 23592.152864 27792.967395 23655.151294 22278.977170 18737.526574 15248.503651 13832.805174 8267.727164 7514.743718 2510.174230 1721.626828 16259.308923 21028.935729 24322.674022 28415.689787 24302.514783 22667.771814 19181.328462 15637.337749 14108.059100 8563.250352 7592.624483 2732.269842 1584.428805 16189.575954 21139.036913 24971.398937 29042.602455 25161.833428 23232.029328 19842.875220 16356.283219 14709.287796 9228.126634 7978.287424 3184.368657 1631.135426 16124.311520 21217.189327 25556.301822 29670.453136 26093.056247 23879.665702 20616.742641 17202.507684 15435.207037 10052.212091 8489.519351 3730.672320 1782.327188 16062.383666 21268.662529 26128.233566 30317.437759 26934.854397 24480.275773 21362.198774 17948.994166 16055.043745 10802.375408 8931.592990 4218.742815 1946.164798 16002.914869 21300.730413 26741.753305 31013.889408 27608.982123 24984.092710 22003.270816 18460.658049 16428.827462 11322.020975 9176.378922 4544.030336 2056.505832 15945.930193 21316.679976 27389.922395 31700.855778 28024.817248 25320.062372 22445.180029 18663.325289 16517.233720 11558.809743 9190.027649 4676.020948 2086.481944 15892.313461 21315.997782 28027.142495 32327.866409 28271.414578 25604.348658 22755.192206 18671.000625 16453.015257 11603.574843 9047.045870 4664.001785 2050.442622 15843.551005 21291.938817 28549.337394 32755.215446 28366.324202 25857.864602 22944.472346 18597.598320 16382.307587 11579.371724 8857.676457 4592.124415 1988.983439 15801.183552 21240.152300 28877.059094 32936.467701 28421.673453 26150.917903 23065.724040 18571.583727 16425.204474 11591.333466 8721.942149 4538.711538 1936.041750 15766.104958 21157.677515 28969.086997 32854.822343 28485.379950 26465.466251 23145.552620 18682.393072 16644.595957 11712.045667 8717.940496 4566.807157 1925.199117 15738.536847 21049.038550 28847.873551 32585.891450 28556.310702 26702.901018 23141.864523 18886.474659 16941.498097 11887.234940 8833.272542 4677.515294 1963.358848 15717.437861 20922.832577 28603.281388 32268.675771 28661.592050 26826.068699 23078.383520 19142.123968 17201.608678 12043.859801 9015.097368 4827.707879 2022.059360 15701.490736 20787.049867 28299.393256 31949.940872 28634.024254 26655.218459 22871.102437 19304.858551 17269.345346 12093.295932 9193.718281 4968.021949 2088.762005 15688.692472 20655.963574 28075.551252 31829.615547 28640.339051 26395.719794 22657.754810 19354.887122 17113.526257 12022.776533 9321.309589 5052.649413 2143.835982 15678.091864 20529.247124 27885.999512 31704.157138 28340.299985 25832.131151 22292.982955 19144.182887 16687.413312 11794.105804 9301.294578 4996.372606 2138.812417 15668.910328 20419.987501 27813.145499 31729.229753 28079.924125 25405.336694 22003.433131 18768.248136 16112.432582 11474.336424 9145.713267 4822.861446 2082.096988 15661.454819 20314.426731 27703.015602 31576.374258 27572.360179 24952.763304 21727.125494 18359.906998 15669.146398 11246.485299 8931.023390 4590.275493 2033.955420 15656.704359 20225.680999 27592.441685 31381.907766 27172.422962 24771.230976 21500.867529 17879.073783 15294.546135 11054.970483 8672.202028 4338.005604 1970.863609 15655.402556 20133.045506 27325.412586 30918.500905 26703.037948 24675.083615 21315.735251 17528.257632 15136.490536 10897.617978 8346.085817 4055.461347 1884.647071 15659.154214 20048.434492 26948.258370 30301.018286 26348.600265 24706.829353 21201.849780 17392.249728 15266.470436 10939.014242 8228.824790 3991.248385 1895.695573 15666.844515 19968.335654 26493.040307 29713.808256 26106.331722 24663.863250 20995.029911 17320.204482 15370.958837 10834.438738 8061.864680 3956.494748 1962.326404 15678.477958 19881.528732 25948.825129 28997.625233 25860.612807 24366.201214 20626.639331 17152.176770 15209.403490 10528.466410 7862.974068 3872.953363 1856.870090 15692.010630 19826.373049 25469.988928 28524.689080 25557.551175 23766.349736 20000.387933 16829.974918 14872.504315 10175.614760 7728.161263 3827.803422 1794.236085 15704.668785 19739.597918 25016.834025 28061.463743 25364.508947 23188.827386 19748.316291 16742.587089 14409.833468 9713.056889 7613.245447 3847.862887 1792.192129 15717.382806 19718.845789 24730.344652 27844.271294 24900.692312 22237.128743 18855.390841 15948.510759 13639.257339 9288.260638 7420.583792 3697.264520 1660.929686 15726.341768 19638.750171 24399.567051 27495.376876 24515.560930 21681.319852 18779.884173 15718.823730 13119.643379 9015.573522 7365.735356 3734.682947 1680.139735 15734.347341 19625.484492 24308.030728 27455.774560 24573.323162 21600.708635 18592.790557 15471.451369 13287.318883 9455.023133 7496.540168 3699.743160 1717.857776 15738.885417 19620.478279 24289.283653 27456.028816 24119.683537 21546.765442 18881.178357 15363.195059 13252.812681 9696.298107 7798.580387 4157.616038 1859.428751 15743.344231 19577.308412 24207.148970 27015.130700 24351.486018 21760.270330 19044.222467 15655.493041 13845.382499 9938.172440 7265.933370 3469.104989 1815.083860 15752.081550 19761.156552 24589.808308 27639.011114 24197.107733 22427.525762 19360.389830 15432.020941 13699.738628 9959.300521 7709.239939 4146.850954 1555.870618 15756.018352 19612.049511 24220.008393 26386.307113 24681.733562 22436.906927 19265.118569 15607.726252 14145.176587 10073.146131 6997.375101 3209.563973 1741.960683 15777.004549 20073.034078 25106.937044 27698.312678 23554.296842 21553.222148 18625.355506 15602.652325 13503.010783 8958.347112 7370.455095 4384.424522 1349.425263 15791.206603 19801.975168 24175.510546 24842.035152 23713.095796 21346.484154 18051.648788 14470.564398 13071.735881 9667.097538 6885.130699 3394.728180 1814.544653 15860.048897 20368.409333 24499.043914 26407.300876 22653.772545 20423.172996 17656.241045 16089.942129 12700.514279 7754.708459 7417.618139 4234.383331 1415.164232 16016.411900 20238.801349 22987.395502 22626.661682 23895.608276 20371.838729 17338.163908 12596.631381 12944.326225 9543.327308 6981.427421 5124.150006 2121.739554 16206.365567 22186.987143 26287.792006 25978.596939 22967.755479 19703.554434 17598.506776 16187.751345 13003.950010 9816.686923 7124.286701 3699.809743 2016.250989 16256.700632 20313.415936 21658.313463 22168.626325 24258.541400 19636.836683 18968.251712 15784.934977 13214.534787 10410.560046 8407.771321 4628.689047 1405.333048 16367.849386 19680.990731 19401.833819 22869.325138 26343.076311 22484.104570 18831.840722 15465.361927 14651.440109 10212.712060 7395.915661 4562.088581 3024.928595 16381.044454 20969.097817 24270.555973 25487.649822 23760.988610 19705.571447 17608.922832 15367.750654 14331.510169 11610.231999 8777.268210 4608.870816 1279.403400 16465.995200 21341.732094 26046.078290 24784.114889 22995.418308 23887.535788 16283.074994 15684.079790 17564.859933 10079.874763 5506.891683 2980.453401 316.242707 17063.277371 23003.298787 30379.759376 25056.618542 25003.299992 21824.219229 15591.385126 13194.298665 12629.158747 7831.251723 6527.010634 5713.950982 2204.045750 17355.956194 22442.789936 28716.837377 26127.426251 21263.387226 25394.892732 15253.798200 9681.051909 10756.019839 5315.548273 2751.408283 902.304994 1706.117360 16167.042947 19112.266192 24024.027021 23140.451880 23023.717740 20440.039443 17545.256474 17238.113505 6820.368126 11842.550781 4806.304531 456.612355 4462.146953 14350.108665 21127.718213 31003.261272 30067.763664 23662.234281 18921.805021 14990.158489 31580.232304 14774.074634 17618.344556 20153.237340 6494.345540 6117.390068 11769.118322 15070.348049 11189.280119 22091.030864 10175.421980 6570.812392 12735.650379 16529.362654 14266.030935 10852.024488 5409.534328 4156.839629 5578.293979 9999.002722 14442.781778 15786.420919 21112.196337 12429.283231 -3967.419208 24197.174500 17235.890298 11629.671878 13360.205930 7674.073529 9927.443921 8084.242786
</DataArray>
<DataArray type="Float64" Name="Velocity" NumberOfComponents="3" format="ascii">