<VTKFile type="PolyData">
<PolyData>
<Piece NumberOfPoints="2177" NumberOfVerts="2177" NumberOfLines="0" NumberOfStrips="0" NumberOfPolys="0">
<PointData>
<DataArray type="Float64" Name="Pressure" format="ascii">
 15150.981299 14777.091335 13941.428193 12748.539234 11432.367831 10086.092591 8769.709054 7462.004936 6201.653411 4920.746669 3630.882802 2713.723157 1910.522210 918.640697 324.074991 175.512088 -225.156713 -732.977285 -650.743124 -276.226464 -389.714725 -793.200173 -804.337432 -812.274202 -1488.451751 -2466.562517 -3095.777240 -3267.025232 -3107.464053 -2744.302955 -2283.737440 -1803.717369 -1356.389108 -972.748412 -666.022881 -435.754883 -272.656551 -163.282186 -93.650710 -51.475720 -27.130107 -13.717258 -6.656287 -3.101021 -1.387474 -0.596370 -0.246313 -0.097777 -0.037312 -0.013689 -0.004826 -0.001629 -0.000522 -0.000158 -0.000048 -0.000018 15046.742075 14447.487822 13125.303401 11353.260492 9754.065573 8378.641687 7028.515415 5359.921723 4465.846991 3864.676761 2126.412652 1907.012535 1958.650517 28.749226 -323.216457 546.306190 -164.162596 -1471.789623 -841.910438 451.138828 -55.356505 -1368.706893 -764.355985 80.481906 -1197.218125 -2856.407700 -3418.204563 -3451.939857 -3201.057863 -2782.119985 -2297.800650 -1809.301393 -1359.234624 -974.672627 -667.524577 -436.943805 -273.559881 -163.930203 -94.088528 -51.754750 -27.298270 -13.813324 -6.708416 -3.127937 -1.400718 -0.602587 -0.249100 -0.098972 -0.037802 -0.013880 -0.004893 -0.001639 -0.000504 -0.000146 -0.000043 -0.000017 14920.124647 14425.939186 13299.886526 10639.957189 9634.222922 8511.995636 7224.518196 1413.422976 4484.599457 5991.628806 -1534.997906 841.934951 4137.446927 -2666.587268 -2502.135832 2792.612942 202.590250 -3890.437263 -1254.367501 2802.828712 712.437885 -3444.754355 -727.110295 2319.608503 -1106.802162 -4053.722778 -3946.834578 -3728.840314 -3361.860274 -2832.634770 -2312.825827 -1813.487586 -1359.706270 -973.888132 -666.418586 -435.893497 -272.705471 -163.299559 -93.656908 -51.477937 -27.130900 -13.717540 -6.656387 -3.101056 -1.387486 -0.596374 -0.246314 -0.097778 -0.037312 -0.013686 -0.004813 -0.001555 -0.000401 -0.000106 -0.000034 -0.000015 -0.000124 -0.000042 -0.000017 -0.000039 -0.000019 -0.000010 -0.000009 -0.000006 -0.000004 -0.000002 -0.000002 -0.000001 -0.000001 -0.000000 -0.000000 -0.000000 -0.000000 -0.000000 -0.000000 -0.000000 -0.000000 -0.000000 -0.000000 -0.000000 -0.000000 -0.000000 -0.000000 -0.000000 -0.000000 -0.000000 0.000000 -0.000000 0.000000 0.000000 0.000000 0.000000 0.000000 0.000000 -0.000000 -0.000000 -0.000000 -0.000000 -0.000000 -0.000000 -0.000000 -0.000000 -0.000000 -0.000000 -0.000000 -0.000000 -0.000000 -0.000000 -0.000000 -0.000000 -0.000000 -0.000000 -0.000000 -0.000000 -0.000000 -0.000000 -0.000000 -0.000000 0.000000 0.000000 0.000000 0.000000 -0.000000 -0.000000 0.000000 -0.000000 -0.000000 -0.000000 -0.000000 -0.000000 -0.000000 -0.000000 -0.000000 -0.000000 -0.000000 -0.000000 -0.000000 -0.000000 -0.000000 -0.000000 -0.000000 -0.000000 -0.000000 -0.000000 -0.000000 -0.000000 -0.000000 -0.000000 -0.000000 -0.000000 -0.000000 -0.000000 -0.000000 -0.000000 -0.000000 -0.000000 -0.000000 -0.000000 -0.000000 -0.000000 -0.000000 -0.000000 -0.000000 -0.000000 -0.000000 -0.000000 -0.000000 -0.000000 -0.000000 -0.000000 -0.000000 -0.000000 -0.000000 -0.000000 -0.000000 -0.000000 -0.000000 -0.000000 -0.000000 -0.000000 -0.000000 -0.000000 -0.000000 -0.000000 -0.000000 -0.000000 -0.000000 -0.000000 -0.000000 -0.000000 -0.000000 -0.000000 -0.000000 -0.000000 -0.000000 -0.000000 -0.000000 -0.000000 -0.000000 -0.000000 -0.000000 -0.000000 -0.000000 -0.000000 -0.000000 -0.000000 -0.000000 -0.000000 -0.000000 -0.000000 -0.000000 -0.000000 -0.000000 -0.000000 -0.000000 -0.000000 -0.000000 -0.000000 -0.000000 -0.000000 -0.000000 -0.000000 -0.000000 -0.000000 -0.000000 -0.000000 -0.000000 -0.000000 -0.000000 -0.000000 -0.000000 -0.000000 -0.000000 -0.000000 -0.000000 -0.000000 -0.000000 -0.000000 -0.000000 -0.000000 -0.000000 -0.000000 -0.000000 -0.000000 -0.000000 -0.000000 -0.000000 -0.000000 -0.000000 -0.000000 -0.000000 -0.000000 -0.000000 -0.000000 -0.000000 -0.000000 -0.000000 -0.000000 -0.000000 -0.000000 -0.000000 -0.000000 -0.000000 -0.000000 -0.000000 -0.000000 -0.000000 -0.000000 -0.000000 -0.000000 -0.000000 -0.000000 -0.000000 -0.000000 -0.000000 -0.000000 -0.000000 -0.000000 -0.000000 -0.000000 -0.000000 -0.000000 -0.000000 -0.000000 -0.000000 -0.000000 -0.000000 -0.000000 -0.000000 -0.000000 -0.000000 -0.000000 -0.000000 -0.000000 -0.000000 -0.000000 -0.000000 -0.000000 -0.000000 -0.000000 -0.000000 -0.000000 -0.000000 -0.000000 -0.000000 -0.000000 -0.000000 -0.000000 -0.000000 -0.000000 -0.000000 -0.000000 -0.000000 -0.000000 -0.000000 -0.000000 -0.000000 -0.000000 -0.000000 -0.000000 -0.000000 -0.000000 -0.000000 -0.000000 -0.000000 -0.000000 -0.000000 -0.000000 -0.000000 -0.000000 -0.000000 -0.000000 -0.000000 -0.000000 -0.000000 -0.000000 -0.000000 -0.000000 -0.000000 -0.000000 -0.000000 -0.000000 -0.000000 -0.000000 -0.000000 -0.000000 -0.000000 -0.000000 -0.000000 -0.000000 -0.000000 0.000000 0.000000 0.000000 0.000000 -0.000000 0.000000 0.000000 -0.000000 12209.061134 9283.295660 2447.950760 3540.042656 4230.225461 1919.383342 658.020124 -3175.827364 -6399.231701 -3729.720243 979.326092 7949.752048 -7490.167826 -4117.061752 -545.482748 -1499.960986 -1551.272637 -1253.242512 -949.568305 -690.070170 -478.800482 -317.039017 -200.760351 -121.807024 -70.900902 -39.629511 -21.285991 -10.993566 -5.462217 -2.611989 -1.202574 -0.533254 -0.227799 -0.093764 -0.037188 -0.014211 -0.005231 -0.001854 -0.000633 -0.000208 -0.000066 -0.000020 -0.000006 -0.000002 -0.000000 -0.000000 -0.000000 -0.000000 -0.000000 -0.000000 -0.000000 -0.000000 -0.000000 0.000000 0.000000 -0.000000 11801.085065 10419.175260 6128.306409 4791.086796 -732.881588 -110.921118 1881.443563 -3178.266742 -11267.905560 -7171.040692 47.997819 -628.911351 -6670.872952 -3148.866776 -1139.402490 -1613.019368 -1550.632501 -1247.311643 -947.745989 -690.109672 -479.415783 -317.734430 -201.355763 -122.255853 -71.212236 -39.831778 -21.410122 -11.065874 -5.502317 -2.633202 -1.213296 -0.538439 -0.230201 -0.094830 -0.037642 -0.014396 -0.005304 -0.001882 -0.000643 -0.000211 -0.000067 -0.000020 -0.000006 -0.000002 -0.000000 -0.000000 -0.000000 -0.000000 -0.000000 -0.000000 -0.000000 -0.000000 -0.000000 0.000000 0.000000 -0.000000 11241.517342 11482.897825 11278.989229 10854.401638 8449.195940 6785.847263 5066.050724 3314.623959 12.339629 -1137.396900 -1119.664546 -1466.243519 -1724.309731 -1266.124276 -1523.785062 -1725.014398 -1550.209878 -1239.747637 -944.529620 -688.564775 -478.348163 -316.907713 -200.727580 -121.801017 -70.900572 -39.629855 -21.286206 -10.993654 -5.462248 -2.611998 -1.202576 -0.533255 -0.227799 -0.093764 -0.037188 -0.014211 -0.005231 -0.001854 -0.000633 -0.000208 -0.000066 -0.000020 -0.000006 -0.000002 -0.000000 -0.000000 -0.000000 -0.000000 -0.000000 -0.000000 -0.000000 -0.000000 -0.000000 0.000000 -0.000000 0.000000 14938.286373 15620.898931 16655.034568 13476.923541 13501.628630 12213.436792 12479.733370 541.981109 6088.905164 3801.348400 -8994.093027 -632.946257 5947.140312 -4179.323234 -3919.794424 4523.858028 330.497424 -5534.419122 -1557.702325 4125.785886 1042.602237 -4486.382137 -828.861199 2916.394504 -1579.326721 -4781.051220 -4171.195207 -3839.669456 15147.028002 17162.384310 19514.078881 12371.678929 14257.388784 14864.296913 7314.102680 11707.693563 9923.597399 15744.308443 9365.988277 8440.415179 13384.894165 8332.280066 16357.775684 15308.073250 8039.591049 15500.134362 11441.938772 11284.826209 17903.776196 16240.432921 7899.505617 14146.907929 9134.567752 7256.883015 271.232024 1272.520446 15799.327636 16122.533339 16646.196896 14039.557190 6881.789509 15075.461841 21511.339983 17632.932922 14461.304699 16748.959526 8016.196684 11225.939135 15872.677651 8029.324674 6452.818305 12308.375614 10371.571725 7832.198769 10082.400262 11682.654226 13203.005736 14141.223146 7005.335218 5562.191884 2161.474055 -893.314447 -184.840428 585.616724 16892.000179 15317.385789 15614.999467 12147.881376 13288.851524 16795.746033 18076.130624 12971.379519 11949.518004 15893.269915 10282.651760 14217.333044 5491.684554 13184.317792 10835.570485 9475.686671 12603.098328 4094.508784 7366.392863 9285.571978 5125.837121 -777.043354 -1112.475530 37.418891 1358.764726 921.672575 4645.906336 1007.916427 17250.849063 17086.635966 16058.210636 12491.155736 21834.990425 10151.972094 18493.102803 19424.935762 14084.802950 4231.549806 13875.383034 15876.991310 9691.153448 9181.648218 12261.875162 9529.353705 19496.880022 7510.344319 8924.303361 8028.081272 1814.239664 -2025.737238 -504.528463 -798.151875 -987.213153 -1132.430138 3448.376728 4489.407792 16991.640200 16197.679347 16763.839668 21141.587910 18522.964836 18797.313619 23238.258621 18218.828205 23592.881637 14129.476569 12993.320140 12760.802915 14959.529193 11847.158846 14289.646665 15324.534682 7569.839583 17143.394571 9232.760527 9097.888250 8446.382696 11562.149004 -801.206667 4056.270064 1753.536114 6700.076675 406.543303 541.887524 17179.074727 15960.281359 17672.295447 18379.981172 20665.460548 24499.661694 18077.870347 12688.649264 21520.581254 18370.127952 23765.108355 16106.369941 22371.130988 12970.483401 16449.811987 12833.888641 10494.621468 10482.194678 9646.280509 10876.332547 4437.037653 9565.106769 10742.125737 8386.245553 1099.586542 5452.011721 1187.517446 2237.245400 17563.418943 19620.410025 22949.116065 24100.446253 19325.897768 18526.721633 20113.030296 17796.308359 17384.926469 21312.193741 15307.076750 13301.806877 11190.891047 17079.602944 13243.716091 15355.562230 7136.645480 10562.768582 7943.422596 7858.527591 6202.389356 4097.822436 3474.969410 1388.647574 3037.934506 1947.198123 3240.250903 285.952975 17408.523606 17870.003240 24175.350513 27697.854609 21703.195977 25328.136395 19983.563945 22995.292701 18708.982609 16185.418616 14220.341144 20715.025319 15284.035806 13438.003894 13798.126690 11365.894141 14037.819601 17261.338358 9418.377278 12063.065465 9615.270758 8211.624405 1532.066046 7375.300688 11444.568771 2369.116195 9958.318748 2663.739928 17227.597712 16246.565511 23143.173191 22834.061386 20309.823787 21358.267469 20147.584914 20082.207807 17141.736023 17640.780057 10218.005087 16069.498420 12359.805641 17543.524891 16849.985905 5018.932114 10429.650497 10567.787254 9329.893727 10928.326213 7508.321645 2642.655185 6090.711810 4137.446013 6283.092019 9257.712153 -389.015006 8959.601633 17035.624373 15881.177874 18001.994841 22058.938102 22787.084063 20527.901847 21589.877629 19787.421027 17975.500581 18932.141871 14549.121286 19096.944472 17575.926843 10481.276145 14744.990365 6123.168992 7264.698590 7284.945467 13091.712902 11562.529296 9317.591489 4409.515336 4533.216980 8551.331802 3304.269638 1334.574414 2137.552489 -9788.990944 17064.402692 16272.137560 19057.718958 21972.567953 19612.593865 20604.351363 21777.494833 18010.587886 14004.011842 15554.981046 12058.739265 13207.105321 18907.548948 20414.167689 9879.546483 14591.289811 12316.677648 15703.539770 4026.635450 6559.806018 4989.486024 3486.970750 9802.855845 9088.582325 9977.488857 3295.733448 4897.903845 9588.478896 17473.150482 15306.426751 19011.864002 24466.882967 19545.043921 23472.031923 21418.588324 18662.060927 21672.044051 18813.231626 15781.529349 15431.020070 10405.333144 13485.995531 8035.979570 7906.086730 13645.651887 -369.310390 4967.018333 13540.948470 11952.489968 8441.188253 4300.067716 9072.971727 8539.625333 7297.014890 6989.203580 7285.094899 17763.370926 16748.547841 19490.589962 24845.298504 21448.335521 17794.605271 20150.659848 23629.740984 21735.533053 17681.291606 19942.978571 8714.337093 7367.790828 1723.079804 1536.879769 4988.506520 10365.019425 -819.745056 1769.275377 2542.729264 1976.309331 1125.077734 15094.164484 11954.301137 -1308.081467 10534.674791 750.060513 -2040.635677 17510.784003 16886.523936 20760.100958 20385.184392 24062.531775 25691.994996 21847.666040 22790.866441 18016.212555 14697.668650 15596.216496 7134.858659 898.256634 1746.936620 1213.267130 -2403.487822 13158.702260 1702.609440 3440.737974 1717.893488 1198.600512 4425.568126 598.595997 2221.785722 2739.910533 3599.458436 3740.069147 7836.685138 17437.991267 17671.154763 21171.094752 22199.112836 24439.163640 20467.186535 21054.103376 18757.083081 18212.864096 14966.553593 11113.399567 2417.159770 17555.570213 17400.208807 18928.435260 25431.804437 22181.025103 28222.027063 20382.092864 21695.751355 18155.498652 13940.021742 15643.859583 719.634302 266.528903 4311.744237 17565.016184 15765.556519 18209.523573 27158.973166 26819.231127 25122.637717 15583.918645 15571.434899 11328.307454 8192.410969 6315.364045 2445.647452 97.380959 18210.887370 18087.021632 19835.924548 23157.434692 27751.022982 24296.251881 23472.917957 21735.501525 10470.826343 9694.563795 8055.521778 11577.074759 -487.931120 18272.414941 16502.978058 19102.808273 24397.332883 24612.928763 16591.413818 19537.501060 15586.691520 16860.638857 4993.705613 -809.456577 5688.027792 2685.004988 18851.918736 17370.681903 24350.635493 24560.175304 23850.986259 25513.162124 21563.078558 12345.574357 8587.647648 1677.543258 -852.258099 3865.815366 2574.916340 19733.888953 19744.678972 26604.517866 26878.340296 24858.374028 28060.435332 21466.437480 17001.421896 10587.468994 7552.875249 6624.174901 8801.893365 1309.197963 20341.374515 21903.381934 30658.516494 29858.821542 31709.959231 21021.556999 21367.953580 9301.470253 12035.276524 9181.424786 3902.104256 -4.021759 9694.742591 20492.324877 20753.918966 25676.520327 29325.545317 24194.990287 23262.069212 17626.938116 11348.640595 15531.031522 7247.334301 4429.122534 1733.396193 725.288161 20419.289724 20057.345616 24411.834984 27483.136862 22851.111885 23880.569134 18229.065057 15967.036858 9872.731697 9170.084629 -3262.233131 8362.399159 14407.597311 20739.477516 20742.855854 24669.434521 22137.553124 26307.019079 28795.592201 26936.630750 11147.719386 6317.103473 5212.398546 14395.454405 5612.753766 -1081.512157 21221.930541 20269.241562 24075.007667 30543.599787 32327.622824 22837.167512 20230.495333 13508.663350 12526.352913 7504.105064 1825.731265 7806.847825 4046.083143 21427.866616 19786.446579 23465.942020 32637.102295 33543.154515 29152.100856 22896.485475 21470.855538 11181.780986 4898.891542 4449.899944 9998.904425 1148.218005 21501.654815 20240.715521 22627.037212 24823.940102 25155.313746 21559.297761 17843.708079 14097.392249 12959.725263 15193.556078 10701.840760 -1339.388201 -127.538031 22129.825710 22007.459655 22301.184353 26739.975375 24178.951772 21269.198080 16130.154427 21720.470945 12810.032750 4720.762240 9333.089005 14924.468034 2617.258410 22844.232124 24091.535810 27719.974984 26095.763633 27247.945293 28739.591237 16850.243582 18091.575536 16440.699846 3984.001258 2368.698609 7452.201134 289.442728 23169.908327 22929.697718 23899.918507 30058.454317 29590.953191 23138.127319 24493.824970 11130.489255 16201.706775 14461.010367 7385.377756 12374.968945 4576.029946 23236.553567 23796.857271 24424.452558 25552.930911 24558.207968 29813.912291 19211.452417 18153.343699 19575.792926 13564.062622 13623.682858 9319.893462 7474.557860 23154.311459 25429.009798 25665.428908 25932.453754 28111.979443 23151.194832 20922.783847 20088.498923 20674.985201 13611.948494 12395.211912 8903.041473 9213.417038 22968.298232 25041.060063 27054.550420 36015.421606 30651.370563 30327.409031 30538.485120 19462.926006 14619.704851 10873.595760 7223.022183 9043.924442 1788.221009 23163.816098 25047.133685 24519.002830 28028.538393 28513.237186 28654.792191 25079.426433 16498.353685 22684.144083 13437.657977 8673.624652 12144.381691 -2127.731493 23223.723212 27100.399998 28046.349473 32429.114923 32766.839219 28859.495820 20023.272026 24052.268564 15035.053238 10184.457725 12720.989531 10665.874777 7224.309256 23059.394877 25571.600698 30047.873960 28845.986526 31327.097414 22013.614636 29900.467193 15313.621832 16668.814485 13589.781971 14898.414299 9861.398901 10762.377151 23180.199774 24204.007965 27901.230189 30320.239317 36986.878050 29562.972294 24954.638912 18879.169151 21234.261458 14233.875062 13508.527231 14386.081911 7763.829061 22984.050090 25162.115756 27777.789464 30965.314473 26870.462951 32337.200759 23087.025424 21740.324813 17044.129308 13437.209666 8557.547976 9661.103666 10884.129441 22706.031763 22784.230166 24337.832669 27650.528483 30037.539174 25601.727774 26173.849118 15890.634822 17934.171851 9593.833817 6501.864683 8187.066420 11497.531603 23481.498126 24553.784761 25930.692249 22921.508655 31883.721756 29222.093919 24415.396887 23645.047062 21250.473723 16710.507372 5249.802567 1772.790503 -16.858385 24281.930230 25398.426343 29596.535504 26458.880616 24137.011285 26448.162392 21269.758778 18279.170454 19454.939610 14743.837424 5585.020215 4159.353988 -1784.365949 24415.686730 26358.560717 32325.433381 25878.813518 29415.832594 29271.949531 24287.024694 20367.693907 14661.166410 16162.215901 10314.154246 7185.399396 -1472.070564 24393.868937 28700.569629 34222.285821 29865.272610 30355.935699 28299.689706 26056.893085 27242.291711 19859.901742 11519.127750 8139.454726 4993.674209 -987.167994 24587.393269 29313.208617 39055.001348 26546.991772 30227.557123 25655.643322 29354.964757 21353.478231 18933.971577 12268.182968 2753.112793 3347.569874 5648.923145 24197.171149 28326.824074 37571.654637 24262.283100 29988.119635 28688.874010 17212.068437 18241.429046 17467.652211 11118.063356 10328.371100 -1187.523448 20096.298434 23957.506429 22547.368658 25462.433735 30591.826434 25716.355078 24516.630736 25492.583653 26925.212128 16089.791615 13523.825381 11937.143230 11287.726774 14712.653448 24587.583537 24832.378935 28029.703597 29485.935451 24859.973347 30226.197951 30286.664193 19942.694830 19951.818128 17245.662399 9607.724044 6174.900411 -2956.550712 25053.332362 30569.737469 38954.023372 31490.209361 25586.613274 26362.002069 28870.023559 17337.391162 19574.315169 13003.642608 12461.479283 8414.088276 4835.539884 25012.747811 27789.901543 34606.379431 22456.065430 34373.253077 23383.894931 17747.762694 27902.720254 23944.401358 9372.349809 13110.019351 2893.563269 8270.412801 25371.159626 25755.195932 28760.883166 25679.833376 22911.753252 23328.242460 26834.851789 12970.735887 13508.542336 17641.808238 7037.817950 1269.812813 23165.167741 25345.161603 29353.385423 36145.211386 21845.022470 29671.222012 31516.651844 20990.348822 16644.167883 24710.098229 18657.133296 11242.811297 8133.614475 9241.832793 24159.244144 28841.245328 31874.209642 29454.433245 28128.954649 26409.628346 22076.987649 30297.009501 18407.171126 18773.377460 7088.574771 7098.985455 -10054.736887 23522.673128 24176.505184 27910.713309 30847.065684 27323.612893 26034.865113 26611.440513 21008.172722 15159.742424 12073.331707 12486.860297 6880.431641 -323.305724 24351.291212 25705.784467 27942.902282 21195.995023 35498.061361 26435.442469 28962.668083 17370.770718 18118.392403 16275.454416 5969.427409 22757.065479 -14656.246662 24437.935690 28256.454289 26499.991990 28035.148131 30989.376836 23604.429128 28583.213946 23643.893393 16242.063399 12845.848493 8134.153021 603.756315 21995.357134 23424.955203 27321.716093 31340.727816 30399.368449 27555.573632 21341.292890 26943.564148 22238.892221 18313.324379 11438.495946 11984.443700 -4266.563808 16316.395706 22974.656937 21831.358603 25643.491458 24770.499602 32439.768012 20893.538221 28795.272621 15725.821959 19005.962116 14530.576802 10237.706345 15526.586028 21157.461009 23237.627111 25552.574285 29968.445030 27415.646242 28914.367165 23549.562980 28237.845435 16979.273049 17537.426146 13267.891210 9178.696504 8011.948889 11536.027576 23123.280451 24796.025196 30811.656367 25900.241973 29175.508055 22195.300705 24076.529229 17739.770623 17466.340007 9973.108477 10087.074979 7856.859266 39660.305956 23283.745273 25607.650875 29674.818973 24780.532783 26110.440903 23553.035713 22214.630826 17361.101628 17355.780741 10428.293855 11694.787713 114.893819 159.639388 23060.082982 28661.857281 32960.552062 21922.897901 24840.745316 25848.816964 19306.970093 18433.883697 14475.576861 12614.994937 15639.290679 13722.843887 21626.151721 22293.096738 27327.983438 35500.756286 19994.872817 30183.723811 23070.709130 16921.442110 17909.342619 15723.541712 11741.200066 9186.662689 5805.879077 -28487.042479 21905.388050 21054.311433 23581.323412 27595.538246 30922.559479 23019.092936 21151.103609 18722.667378 18193.126154 6480.505841 9754.197950 4909.675098 4014.876466 22605.882020 21901.327853 24649.973638 21170.492626 19113.911275 22117.664704 18803.201637 18245.679698 18455.318504 3480.130138 11638.158799 2236.250401 18236.637670 23101.628047 24596.392712 28302.375293 21786.645897 35673.857180 22720.887905 19157.965199 16770.646608 18450.190048 7697.646279 13622.432731 -814.855331 18639.129388 22782.495033 25387.477238 28394.388152 28782.924743 22107.824704 27626.640238 20882.598567 15649.266159 18693.310140 8705.318233 14618.679825 3836.207669 6333.665998 22155.334153 24924.349266 25456.999069 24746.902596 19116.879122 22975.259749 23250.146785 5975.997636 17529.168790 9597.260225 10912.377351 2292.264065 5053.893425 21562.797097 24684.863826 23967.714233 23142.370087 22278.716826 21671.909654 25278.135346 13899.761081 21975.116822 10208.897138 8039.736461 290.168541 924.806824 21096.950082 22008.087624 20975.554892 20767.593434 22981.978416 15265.507575 20530.696279 5848.874315 19365.591107 10269.534726 5683.321285 6624.066244 9379.670691 21158.459121 22771.740256 26825.410759 20653.788291 21955.677624 19459.660198 22821.403146 15988.736003 20467.352608 12996.137335 4853.921332 8386.749708 3425.105292 21639.890825 23273.121030 24024.642195 21736.419901 20816.158891 19523.488077 16639.840055 15200.414868 9978.803379 13835.236061 4658.362634 10230.216790 -745.077552 21476.270301 23790.854553 22756.782911 21052.690001 22858.615402 18801.484020 17356.036247 19046.323787 10912.739051 19437.352547 1902.790774 5987.424017 -155.992902 20770.792723 19847.885594 21038.312520 20330.042483 20271.373985 18020.973324 15036.821736 13794.765524 7048.119538 12782.869126 -2821.139854 11704.833035 11135.159006 20581.899411 20399.041898 19592.084418 18452.981968 20822.372390 17262.085423 15368.196118 16650.027103 11934.028727 21589.748441 -679.502002 14392.896256 1038.706849 20492.735745 21489.776834 22708.961195 18114.252235 18047.387517 17507.548012 10919.406903 14678.628726 2906.715567 13360.596755 -418.883424 9662.299669 4561.874313 20186.222021 21926.472378 22497.811702 19803.621934 15669.940458 17142.341158 12683.734899 15752.367360 12769.292453 13624.730794 4078.342246 10624.275922 6339.530149 19920.963087 20626.786665 20610.997020 16932.831853 16832.729743 16303.787766 9688.678156 10866.707897 5270.520192 8382.372631 4731.854050 3408.437257 4974.228444 20006.118105 19951.753656 18478.239587 16644.024272 14751.039044 15450.023884 13334.090957 12132.248849 7786.127183 10187.739620 199.673918 6278.344195 5144.137641 20188.343440 19860.885644 19451.233127 18470.361343 14721.102443 14192.270797 11293.136260 10859.293137 9710.978584 8655.381675 4136.479877 3826.727016 515.524881 20289.141515 19107.857403 16642.775105 17815.304436 17313.231795 14059.224149 10689.211099 8481.226938 7337.120112 6384.967547 2330.993246 3437.800973 406.464184 20238.392655 18590.736350 15644.459716 16667.212704 15629.298484 12607.032397 11259.658480 9887.529469 7849.376886 6493.578213 6290.326729 1123.995995 336.442745 20161.742766 18771.648383 15234.117595 16315.211311 13645.138364 11372.972211 12531.415492 8696.782950 8546.206133 3713.731532 4058.308704 2304.919337 -25.699056 19837.687866 17818.300394 13933.871271 15377.104103 12308.999604 12415.089656 10391.213303 7357.499993 8498.170762 2802.878247 8472.839649 98.124985 2567.786589 19153.477150 17618.162820 13924.047971 13582.552865 11033.056692 9694.217075 11990.594728 6716.118627 7308.857218 1856.461733 3026.679680 -79.391870 2223.805821 18558.409603 17681.289863 14372.309463 12526.470101 10429.694597 10283.702856 6634.571349 6544.365019 5495.858403 3608.603164 4845.947926 1239.602703 2075.555007 18211.432219 18806.024222 16148.997672 11020.203326 12877.448877 10478.085927 7875.479963 5103.303441 4155.003543 2373.450140 1451.971320 505.377087 1497.855392 17833.115075 17061.983161 13390.695790 13882.506536 13301.580421 10802.823884 9463.925798 7613.657318 3240.956073 3080.179380 1588.877947 2638.098974 772.775460 17905.058212 16395.734334 13187.952649 16414.097323 14761.214191 8914.624412 7831.508453 2278.275312 6319.069981 2660.092259 1622.036254 2016.177445 1052.264801 18236.739509 15838.149462 12874.650949 12981.102655 11330.371211 6318.787703 5974.790413 2540.731504 6758.821931 2727.793255 2424.189831 3363.690904 1525.893346 18715.826799 17883.118097 14312.517721 8264.448222 11013.673176 4220.615121 2610.924068 6164.035696 7003.445859 3823.395736 4703.188339 4915.052690 1489.753176 19104.273364 18633.586019 13108.117548 10458.732377 5838.369991 7770.437028 4895.071373 4229.783235 4540.106347 1969.667477 5295.993707 3413.950562 870.075316 19082.954379 17261.233683 11547.066989 6765.208534 9139.085935 6740.936135 4875.054641 4364.218783 3464.104503 5964.190148 2041.556824 930.575551 -624.683129 18719.370306 16506.125414 11725.697894 8923.474437 5950.648093 7778.877132 910.629984 -96.756427 1924.750262 2959.156260 1410.167057 1095.283551 -119.710472 18279.816110 18062.119094 14766.824243 5435.055368 6707.880078 6092.164769 3994.143242 4071.850208 547.670957 4220.462404 -1088.927205 93.635140 2435.826319 17231.131261 15873.411227 9355.537680 11321.455651 -761.609182 5366.540089 7545.552729 -4387.978815 2460.236574 2272.065604 1062.978039 3274.296789 -1300.883750 15721.444822 14747.207482 11782.891385 4634.240415 8420.980106 3644.274862 2380.294804 -1341.315531 -1275.383952 5396.508608 9235.379319 -332.662075 -1994.073346 13858.249043 11507.927239 8911.675525 8505.353664 3452.520253 6878.802693 6657.263005 5347.873008 6615.941991 9858.124879 2466.324398 -4782.478217 4675.172050 12778.409831 12037.804361 8111.264343 8098.511182 8129.134995 5725.738528 2575.124398 3897.415837 2769.671148 6288.488825 3318.117175 -943.556223 -2270.735542 12209.061134 9283.295660 2447.950760 3238.333690 6136.205712 10172.867368 3895.253333 4481.633793 1001.435250 -113.510389 4678.609214 3531.915942 643.131131
</DataArray>
<DataArray type="Float64" Name="Velocity" NumberOfComponents="3" format="ascii">