<VTKFile type="PolyData">
<PolyData>
<Piece NumberOfPoints="2177" NumberOfVerts="2177" NumberOfLines="0" NumberOfStrips="0" NumberOfPolys="0">
<PointData>
<DataArray type="Float64" Name="Pressure" format="ascii">
 13756.433776 13589.870813 13236.087592 12701.497111 11964.766847 11031.701366 10028.856937 9017.247008 7952.727623 6820.075327 5688.228122 4629.386617 3696.196690 2950.349413 2408.125633 2029.334182 1750.372613 1524.230723 1326.997964 1145.403377 969.291226 791.292139 607.831543 419.007830 227.454172 36.593872 -151.596734 -338.594033 -526.563269 -709.757446 -876.314080 -1018.358029 -1133.365029 -1221.779079 -1285.479132 -1326.993713 -1349.075272 -1354.448206 -1345.661963 -1325.017013 -1294.541623 -1256.001230 -1210.925552 -1160.642468 -1106.311542 -1048.953718 -989.477094 -928.703323 -867.409699 -806.431451 -746.950481 -691.163900 -643.108571 -607.443073 -585.773775 -576.498060 13841.302445 13676.751723 13330.568089 12870.496575 12180.725202 11115.250771 9979.846151 8967.680967 7989.696814 6856.476582 5648.298249 4539.852615 3615.997183 2912.513619 2374.394269 1996.016035 1730.822871 1516.226393 1324.289989 1144.362907 968.657729 790.852453 607.744633 419.657835 229.629144 41.980262 -139.947333 -318.570076 -508.492877 -701.265170 -872.956833 -1016.961584 -1132.631590 -1221.283724 -1285.089813 -1326.669524 -1348.801877 -1354.218400 -1345.470292 -1324.858576 -1294.411974 -1255.896454 -1210.842273 -1160.577691 -1106.262186 -1048.915255 -989.439372 -928.637318 -867.225509 -805.850969 -745.150984 -686.477146 -633.978134 -597.349168 -577.235406 -569.479010 13991.044636 13759.166342 13222.711476 12984.039176 13118.041011 11300.468040 9924.072550 8668.280747 8062.923441 6936.352593 5492.983621 4336.564472 3431.286944 3040.754472 2394.408591 1973.702417 1710.137538 1506.879708 1321.003173 1143.129123 967.973669 790.418457 607.709108 420.451091 232.212181 48.698170 -122.917528 -278.273131 -466.620459 -689.383608 -870.106789 -1016.435727 -1132.770817 -1221.595254 -1285.422246 -1326.976105 -1349.069820 -1354.446518 -1345.661438 -1325.016842 -1294.541543 -1256.001117 -1210.925230 -1160.641433 -1106.308179 -1048.942775 -989.441472 -928.587369 -867.032322 -805.201727 -742.977643 -677.585036 -613.030925 -577.944527 -562.476835 -557.673001 -571.578122 -555.187936 -548.813789 -526.783791 -520.800676 -517.637605 -478.960529 -477.525213 -476.241769 -436.740302 -436.343813 -435.898479 -397.659977 -397.569590 -397.400946 -361.268203 -361.268518 -361.188431 -327.396036 -327.423309 -327.371474 -295.953140 -295.987796 -295.945578 -266.860193 -266.896089 -266.857865 -240.031753 -240.066887 -240.031036 -215.373235 -215.406910 -215.373014 -192.781966 -192.813914 -192.781898 -172.149230 -172.179339 -172.149209 -153.362404 -153.390630 -153.362398 -136.306890 -136.333227 -136.306888 -120.867797 -120.892266 -120.867796 -106.931366 -106.954008 -106.931366 -94.386142 -94.407012 -94.386142 -83.123928 -83.143095 -83.123928 -73.040543 -73.058082 -73.040543 -64.036393 -64.052389 -64.036393 -56.016900 -56.031441 -56.016900 -48.892788 -48.905963 -48.892788 -42.580253 -42.592153 -42.580253 -37.001036 -37.011752 -37.001036 -32.082416 -32.092039 -32.082416 -27.757131 -27.765747 -27.757131 -23.963244 -23.970937 -23.963244 -20.643968 -20.650818 -20.643968 -17.747451 -17.753536 -17.747451 -15.226548 -15.231940 -15.226548 -13.038564 -13.043332 -13.038564 -11.145001 -11.149207 -11.145001 -9.511284 -9.514989 -9.511284 -8.106509 -8.109769 -8.106509 -6.903180 -6.906045 -6.903180 -5.876965 -5.879483 -5.876965 -5.006458 -5.008673 -5.006458 -4.272962 -4.274915 -4.272962 -3.660280 -3.662009 -3.660280 -3.154535 -3.156073 -3.154535 -2.743993 -2.745374 -2.743993 -2.418923 -2.420176 -2.418923 -2.171462 -2.172617 -2.171462 -1.995514 -1.996597 -1.995514 -1.886654 -1.887692 -1.886654 -1.842070 -1.843087 -1.842070 -1.860508 -1.861530 -1.860508 -1.942253 -1.943304 -1.942253 -2.089118 -2.090224 -2.089118 -2.304460 -2.305645 -2.304460 -2.593211 -2.594503 -2.593211 -2.961929 -2.963355 -2.961929 -3.418867 -3.420455 -3.418867 -3.974059 -3.975840 -3.974059 -4.639420 -4.641427 -4.639420 -5.428864 -5.431131 -5.428864 -6.358433 -6.360997 -6.358433 -7.446438 -7.449338 -7.446438 -8.713614 -8.716892 -8.713614 -10.183273 -10.186974 -10.183273 -11.881477 -11.885648 -11.881477 -13.837198 -13.841889 -13.837198 -16.082487 -16.087752 -16.082487 -18.652640 -18.658533 -18.652640 -21.586344 -21.592923 -21.586344 -24.925822 -24.933147 -24.925822 -28.716956 -28.725088 -28.716956 -33.009380 -33.018382 -33.009380 -37.856555 -37.866490 -37.856555 -43.315798 -43.326729 -43.315798 -49.448273 -49.460262 -49.448273 -56.318931 -56.332040 -56.318931 -63.996396 -64.010681 -63.996396 -72.552777 -72.568293 -72.552777 -82.063421 -82.080216 -82.063421 -92.606575 -92.624691 -92.606575 -104.262965 -104.282435 -104.262965 -117.115282 -117.136130 -117.115282 -131.247562 -131.269802 -131.247562 -146.744466 -146.768096 -146.744466 -163.690440 -163.715443 -163.690440 -182.168762 -182.195105 -182.168762 -202.260475 -202.288106 -202.260474 -224.043191 -224.072037 -224.043191 -247.589785 -247.619748 -247.589784 -272.966964 -272.997923 -272.966961 -300.233732 -300.265535 -300.233722 -329.439746 -329.472210 -329.439714 -360.623585 -360.656479 -360.623482 -393.810948 -393.843954 -393.810613 -429.012839 -429.045427 -429.011752 -466.223880 -466.254903 -466.220352 -505.421202 -505.447577 -505.409757 -546.565340 -546.577755 -546.528212 -589.607789 -589.576540 -589.487355 -634.521212 -634.347936 -634.130540 -681.401121 -680.749182 -680.134820 -731.008898 -728.516495 -726.884772 -783.513610 -774.271130 -770.513844 -809.987765 -795.313107 -789.041467 15430.412538 15366.897786 16537.251265 14165.755781 19001.781276 15543.242525 13065.457678 18926.424324 14467.284994 18049.166312 15698.994878 14299.472059 16762.088151 15043.658992 14643.524493 12475.294077 12761.141605 10888.565581 10463.085414 7900.071230 6284.566066 6193.621622 2143.490823 89.081691 -339.919082 -548.430649 -696.825457 -819.259498 -925.722394 -1020.019664 -1103.693258 -1177.283563 -1240.869321 -1294.347240 -1337.593262 -1370.557975 -1393.319231 -1406.104603 -1409.292399 -1403.398094 -1389.051799 -1366.971327 -1337.934335 -1302.752007 -1262.245767 -1217.227403 -1168.481336 -1116.743939 -1062.663315 -1006.682200 -948.704732 -885.678735 -827.893904 -802.675454 -791.905180 -788.198356 15736.251982 15844.802554 16111.713076 16126.584859 17815.053849 17602.256428 16306.405957 17324.297253 14856.746682 16201.448885 14834.175164 13948.149576 14165.675646 13678.559272 13255.807229 12184.266606 11114.794706 9631.180004 7832.008216 5806.325856 3949.825499 2253.381307 818.838014 12.081862 -346.840705 -548.612358 -696.573780 -819.037456 -925.538108 -1019.853759 -1103.533303 -1177.123274 -1240.706280 -1294.181435 -1337.426145 -1370.391810 -1393.156612 -1405.948110 -1409.144363 -1403.260452 -1388.926030 -1366.858453 -1337.834991 -1302.666631 -1262.175098 -1217.173951 -1168.453997 -1116.772918 -1062.849079 -1007.363620 -951.000905 -894.891669 -844.960650 -815.285861 -800.789992 -795.449433 15867.658392 16060.429182 16420.569185 16646.665594 16959.542932 17084.883382 16465.757325 15937.754923 15421.834721 15061.747748 14377.382637 13847.590710 13409.854867 12827.880349 12081.152485 11062.139124 9757.615628 8178.938396 6386.615196 4542.023941 2860.346931 1480.440213 510.895843 -47.858243 -354.998568 -550.041559 -697.022733 -819.286276 -925.726503 -1020.020361 -1103.693383 -1177.283587 -1240.869326 -1294.347241 -1337.593262 -1370.557975 -1393.319231 -1406.104604 -1409.292402 -1403.398104 -1389.051832 -1366.971436 -1337.934688 -1302.753155 -1262.249498 -1217.239529 -1168.520754 -1116.872073 -1063.079745 -1008.037907 -953.067791 -900.818386 -856.274395 -825.313265 -807.950485 -800.967890 14072.770574 13780.370940 13242.761974 12633.531104 13085.319302 10876.072523 9381.766440 8789.775264 8463.713258 7085.468214 5647.894532 4121.733345 3519.855559 3912.135259 2636.391082 1971.511457 1704.481734 1504.175688 1320.003349 1142.762867 967.830061 790.379646 607.771511 420.697730 232.894341 50.541854 -116.990398 -257.174018 14209.320467 13755.617442 14103.370982 13527.691555 11300.810239 12865.200455 16081.639969 18130.811346 14166.336776 12654.973490 10810.291890 13179.785229 14778.627761 15459.135726 12348.407296 13479.661898 15311.738187 11697.025233 14041.294300 13206.611620 12840.094257 16802.266010 15585.085114 16892.873330 12402.104773 10739.172332 6685.056366 6918.886928 14328.287348 12574.688133 12563.609067 8211.656800 16862.315331 12844.545679 10419.060563 11271.161782 10698.290371 15372.994827 7624.115422 14746.097773 12929.700295 12971.223846 11679.764285 13723.876692 11931.606641 10331.595487 15319.624403 7334.798410 15575.455572 16928.488338 11670.196958 13308.582560 18496.522353 11339.134173 15335.644507 12512.085966 14621.765170 12272.675602 10832.805096 11572.284960 13724.836540 6636.324340 12142.347280 13769.046264 9080.269525 15785.143164 302.225322 10384.232610 10850.743955 11183.238159 14160.644013 13376.098276 8982.390563 9771.846026 11494.725715 11918.326626 12149.436249 10614.870361 7720.920018 11479.835454 12331.801535 6801.999475 14312.669142 8410.774660 15083.600570 14127.541810 12199.514310 16088.385187 9103.290360 15530.997146 9317.691614 8708.748232 14549.930986 8251.842550 11072.555822 13768.078134 9913.546758 13698.970627 6251.544447 8241.761084 12698.557467 10571.287662 5501.695113 12239.665774 2680.857988 8312.092126 14084.205922 7814.416531 7919.466466 6245.756387 2364.285780 10125.159638 15289.888322 15713.169206 13858.890620 18392.942948 11010.622410 15009.228433 12155.520634 11626.552995 13525.905177 9570.069449 10027.255607 9380.149300 11754.230263 4118.205558 9749.670846 21233.301865 7739.078381 6638.774625 11864.708205 12863.331289 9469.615609 13236.390220 11099.630558 11147.640533 11852.047570 5226.824087 8024.079913 6398.684804 15104.682423 14980.725601 14363.181630 11383.237784 10701.470768 12362.569347 8654.680237 6509.517939 7103.204598 10033.567540 12350.564249 10857.262845 10268.567585 11246.857528 15427.558686 8752.560561 9853.751175 12796.209467 6830.648839 5057.991688 6713.560878 12168.365953 9895.105912 15774.817151 5968.960297 8787.284642 10503.811628 4967.474857 14800.298850 13822.316129 13417.003553 11928.105846 10557.658839 13798.475864 11792.131847 13377.703033 9406.240669 10089.168626 8280.268250 12428.219261 8934.797549 4171.652166 11292.410656 10033.520809 6618.712233 14170.302163 10165.097367 8820.423895 14184.210769 9040.438185 8272.001629 6043.440550 10445.197403 6687.890976 1883.117154 8985.469527 14528.173747 14184.332760 15202.161262 11094.061267 11532.943848 13564.804557 13125.164167 11509.523611 7578.180817 8287.877629 9767.792409 12922.209114 8665.970089 9273.525842 9847.465425 6129.997390 9358.112719 4710.878517 12840.784172 2957.018774 8629.383952 10483.365088 2843.156747 9665.486944 7797.175581 4296.229466 8543.303614 4924.052943 14298.642546 16300.953712 19926.297962 16582.256380 13293.606801 12768.088638 8372.749034 10626.720300 7950.896377 10010.381025 4074.583900 6230.495609 5820.705696 6033.913460 5697.690307 6448.452541 6801.625584 9730.621359 13538.638256 4395.954962 13367.005100 7696.192581 8897.384740 9221.197888 14318.150109 6607.029524 3747.857252 4230.485513 14084.657302 14451.448953 14541.117275 14292.138526 11855.062209 11723.656398 10180.393159 11716.104408 10865.404559 9582.031983 8601.796118 12355.453173 7348.862363 5080.188809 9305.699686 2624.031322 2754.414202 7035.902904 10269.364302 10018.308692 10647.974933 5463.311492 6427.788197 10495.780985 12446.041716 7409.818548 4050.341417 -1787.106299 13707.734556 13612.115016 10461.520190 17654.271425 13355.162164 10390.146277 13252.540837 7588.636759 7119.511285 10001.196235 6197.320208 9422.782437 12229.362411 10175.860478 10887.274577 9075.802131 10736.094416 7388.547548 5530.962809 5388.550755 5735.769491 5665.018743 7043.270360 9997.156951 4760.117608 12406.432460 1926.861330 2641.703926 13524.383881 15842.521536 17783.496773 8545.164483 12595.774762 11882.637623 8550.888345 7153.254222 12870.168404 10156.237715 11215.716457 8477.758896 4674.574246 5413.331127 8345.715949 10509.166699 7265.419659 4068.093905 8882.124870 9424.082794 8342.097800 7909.633061 6978.636907 5659.672222 7705.310212 12892.559504 7058.560157 12380.142319 13718.441662 14087.807264 12602.789621 11333.589446 11525.366342 8684.958213 17310.083908 12823.193090 5108.728699 11469.445865 11383.886647 6665.972706 6771.513056 6965.158335 5959.343077 4519.445632 4288.939262 4033.261201 10229.632517 6432.225414 14274.372955 5148.932466 10106.544286 7095.736896 9835.539703 9193.502102 3942.403596 3729.305621 14328.537791 12660.515214 7097.859542 13170.171502 10965.627841 13639.410888 8615.603870 11001.691733 5650.347154 13389.022601 10468.276001 5179.916628 6022.438996 4541.117805 5857.495255 3489.048601 4186.214649 4352.104150 6693.524498 5732.515652 5110.863778 3657.621879 5050.917650 5320.653095 3542.114036 7906.714565 6112.756832 4532.493775 14794.341448 13345.957464 10315.408417 12490.946530 12836.811447 10266.892485 9699.239695 11339.807790 10273.761706 9160.123593 11685.021428 6193.590223 6291.126425 14945.087781 13408.509490 13834.956079 13034.471945 12748.176592 11587.335685 11576.357885 9404.007213 10127.852446 5659.183306 963.086924 4155.757673 3530.192969 15104.639043 12895.900820 12795.234288 7835.635168 10468.095536 11509.403084 8720.693669 10789.252648 3284.006002 6365.674769 6917.225761 6685.477604 4153.300101 15295.264419 13612.335573 12392.075222 8801.743642 13714.968581 9930.040794 11980.032077 7616.660141 7654.410644 9607.767793 5318.246491 10851.750901 3326.312503 15451.409314 14489.974613 13377.503598 15255.853760 8058.969194 5390.825294 8463.152342 12236.196313 10613.012054 8134.741956 1454.107199 8306.806427 3631.357321 15538.593941 15081.057800 13644.591288 16358.950323 14225.552763 11325.043722 13710.758025 11733.754363 7503.859929 8209.722709 6314.336895 3904.810269 4460.581381 15796.418800 15484.012142 13488.210497 12513.549552 13398.542492 7856.259773 5921.966848 8298.857230 5201.894405 10548.956921 6454.768096 9619.504826 3031.392862 15992.342845 14743.630399 11653.972534 13883.662180 13678.657374 15533.023446 6014.967666 4015.004061 10116.336183 4463.518037 6796.303764 2377.947138 4613.309899 15978.323375 15581.289301 15527.401722 11563.670253 12585.853999 10751.559834 8532.098747 7080.705995 8678.695752 5800.960454 7519.888198 4630.425537 4813.015741 15876.590611 16184.111761 18612.629393 7789.498912 11352.163182 8808.123337 9620.344988 8183.791436 7852.921142 6738.095622 8573.876408 4841.937928 3208.225655 15924.689244 16134.307324 16028.045334 10465.532502 13758.459626 10715.170669 11417.766684 5321.065104 5918.067273 6956.377278 12180.218839 10016.376325 5566.430598 16072.532948 15438.679601 14029.101594 11407.034646 10864.958580 10095.896264 5491.708649 9562.371194 5026.406432 15028.261747 7656.511875 10009.519651 5989.082080 15975.260099 14487.326623 12746.497728 8787.918199 14461.305727 12344.737427 11238.143429 8866.874147 8249.516290 8894.506255 8401.504834 3019.361538 4282.521510 15776.551825 14934.187652 13273.850679 9995.881692 5256.240096 8918.489164 6866.054080 9475.456852 11288.251218 9261.595734 5986.552577 7075.036115 1804.356371 15726.167337 16641.583985 15943.697220 7564.536756 10753.178238 11723.157844 5915.244915 14630.757487 4857.295315 7420.410454 8257.669365 12287.873637 7136.930714 15680.920742 15624.767140 14491.378159 10334.731155 9647.976380 10990.083684 10965.823858 9675.629052 11668.579908 6587.336787 7277.119399 12423.448130 4050.389726 15582.867095 14210.896519 13635.762355 12117.750141 8074.133779 8802.689039 4172.487312 13649.635191 2807.361269 15379.675027 5619.273287 5151.209587 2463.693557 15619.036235 14577.684338 15826.498042 13618.250572 12920.854541 12248.790456 7549.776775 12669.094959 7686.081641 7244.071699 10516.292308 6351.266670 6474.442184 15842.950659 15254.542721 16157.276426 13947.999802 9974.772697 10183.821629 9320.490335 9045.523830 6334.066188 6384.527045 5947.535725 7908.052549 5902.396942 16110.525554 14406.782945 11444.548115 14053.531183 14745.553180 11513.700948 6335.441736 7677.440036 5996.648264 10688.608477 6907.632502 6471.693502 5347.310890 16187.112883 14543.854025 11478.587156 13659.993938 12825.204664 11125.244093 10722.778708 4602.002970 10160.083851 5296.108748 5904.301499 7537.209737 4028.962482 15997.050935 16155.089883 14763.619820 15718.297951 13905.372693 13656.298556 9171.334156 13484.483280 9150.941948 6370.179979 5734.650819 6052.677836 6100.500805 15966.637788 15973.703436 14194.236771 14058.749290 12449.134170 7502.977207 11391.803566 10560.067007 7851.266374 9371.532768 3233.661327 5884.197192 6041.770943 16071.935565 14465.812628 13202.559591 14006.223065 14492.458323 7646.445092 9178.185527 10940.599227 4513.169971 13820.978780 6311.656188 4820.366079 5153.553689 16099.065730 15092.273928 16786.882927 11046.206340 13882.490359 12608.391841 4248.230161 8364.538315 10228.088120 8634.022430 3775.948912 11654.568708 6114.645780 16318.697213 16176.342035 18411.999249 13292.899252 8867.674772 4160.094003 11836.508602 9286.417088 10542.924690 3178.693425 6962.705809 6031.774075 13407.358783 16541.210351 14770.687021 12150.399248 8879.277024 9610.343818 10153.176615 8336.611250 5595.509073 10048.870966 6316.721944 6281.639217 3892.242116 9750.821720 16689.259367 13946.347765 10172.758848 9562.840338 11071.444758 8673.535773 12584.059297 12423.319194 8233.634073 9166.546649 7144.193782 9833.790539 4082.358996 16828.406013 15355.028167 12161.415607 13078.129094 11825.271915 9693.727645 9063.719927 12544.838186 8206.283766 8648.476916 9273.319923 8590.916923 3368.400667 16686.926128 16263.248386 14619.605216 12743.561812 14541.347493 10284.643966 12776.492716 10291.927418 11549.462415 10845.680082 8589.187344 4979.124019 4869.604526 16316.389054 17765.134845 20544.546910 11387.884460 6744.144322 9358.505491 10785.769578 8250.493433 6926.643249 3076.109512 9345.864720 10045.520007 7619.003694 16160.843357 17601.541854 22172.353484 13347.110745 13300.524786 8206.968132 18072.948446 10323.520782 8218.732581 10392.528696 4833.580875 12218.972335 4423.874456 16329.697619 15133.303122 14953.396646 9330.633341 11812.478193 9020.063349 5806.070931 4214.392026 5971.148890 4931.302803 5477.948987 10646.520228 3874.638123 16487.324190 14865.796783 13282.610330 14049.420091 16653.941999 10249.145968 8904.361278 13549.850155 12356.821761 12812.813691 4559.036404 3869.398789 4107.175989 16584.443198 16793.738533 17821.158522 11682.580391 12848.122223 16025.210468 10583.308908 9838.263513 6911.034873 3959.884059 1856.023885 5020.342814 9098.289164 16995.256775 17625.760979 19130.401933 9214.245884 9328.274834 10642.799220 15847.004691 9398.081355 12406.734584 7594.293472 11134.216069 8798.273823 9175.397417 17608.715281 17229.910888 16058.883345 15615.335627 12578.621312 5134.605321 9763.132961 3086.586687 10188.287232 13146.156180 7598.001064 4338.781693 5953.087636 17883.348026 17595.772505 16244.545318 9866.625637 14978.652330 9308.837288 8987.312210 11281.958251 9444.048926 10448.573137 8282.713915 6010.587017 9578.090400 17687.423924 17474.530377 17598.104225 14037.809217 7787.438041 14629.656157 10675.370145 12991.003415 10888.561353 3577.388940 13366.491070 12639.233374 4370.528993 17451.355105 16599.445832 16411.819806 13255.263228 17741.790418 18329.041412 11527.220996 7621.651904 7524.258979 9461.645943 7805.332337 12143.725197 6068.474795 17452.507073 16905.753905 16691.276786 17542.273493 7020.227138 17180.696411 10931.744912 10165.963404 6066.686461 12363.033924 9293.064399 11502.479198 8080.945649 17538.270624 16097.513255 11608.217980 10374.547649 15001.778599 13265.831276 12156.417591 8233.320890 13569.340838 8961.219554 7113.351626 3944.104198 4365.999590 17610.177842 15665.241416 8986.650841 14621.477242 19312.011527 11542.280025 10164.481856 12994.980453 9782.430233 10777.983508 8738.358968 15098.877143 7329.258648 17397.921704 15215.465648 9774.747987 11178.940624 13428.635020 8941.090498 15402.511278 11574.102327 14728.962846 11087.403413 11219.375478 5689.911680 5643.282739 16706.014580 16158.993811 20755.705843 13358.531960 15255.736286 9217.919863 15135.864021 12523.462903 12685.935817 4714.295456 9130.645663 11098.979464 4751.380101 16024.865376 16359.747880 32217.724151 13529.735696 11119.557030 11919.561534 10727.041407 8647.330628 2725.490117 14621.607908 12188.628654 5778.242221 7183.816495 16313.173966 15074.811731 20806.996624 13857.353691 18915.024887 14191.036979 16318.056402 10638.460996 7024.770165 6043.248414 9265.082528 4666.106715 9483.849497 16950.181899 12603.675822 5601.213939 14578.899307 13473.404803 10233.331703 11709.495700 10103.953662 13592.015153 11853.482658 6823.933374 14359.275407 9549.501770 17047.186101 13503.165910 7945.294921 10435.344141 10741.501404 12790.092629 10509.546885 14017.572374 11872.149765 17794.311171 8901.948220 7393.323915 5940.567080 17276.077276 17509.087943 18584.873930 10233.696243 13420.883435 10637.623416 15132.969629 14051.816584 14281.862041 16053.315211 17635.130032 7640.139991 5210.966654 17578.062290 18676.795606 23144.953516 14390.313410 19588.277885 11324.017313 11205.241012 12767.544057 12739.951257 10798.112784 15248.197401 12193.383061 7361.334439 17337.401113 18352.585541 20867.653081 13766.703935 14579.690710 10910.529384 16266.839174 10320.090942 13929.519068 7715.199034 4693.927179 9315.158179 6873.496880 17119.094411 17609.148575 19432.435670 11595.055879 12315.266047 7100.678440 11650.779606 9986.631169 12266.613115 4431.480974 11498.695953 4907.694694 8820.788484 17205.193021 19126.475902 22180.052132 15499.686278 8602.443633 13677.356765 14442.734418 12061.925408 14971.833268 14950.740818 13261.332609 15251.657629 3319.915016 17851.076728 22360.787039 26239.285528 14331.544212 15949.755202 10035.602644 11676.982620 13634.375968 13110.631115 13793.119371 8999.191854 11916.573401 8051.953220 18450.633859 20336.803291 19485.902101 16211.505517 10898.038473 16070.863395 17602.578778 10051.432650 19030.900700 16482.093114 14146.846242 7831.712275 7621.094459 18571.639920 19219.905561 18566.953339 15959.045507 14531.066493 9664.975896 14228.601300 14310.119965 14475.355328 13834.172808 10640.539433 11256.158885 10301.493622 18389.933060 19026.276649 17809.553501 17693.267611 11759.297719 13522.715284 12751.196419 8216.814214 14089.602669 10908.154404 15855.579801 10206.540296 9326.073543 18025.932343 14981.792421 7571.174086 14167.602714 12993.557124 16511.090384 11423.007524 12444.576372 9918.513079 18394.887981 6467.612601 8972.378227 8180.976331 17915.844421 16282.957494 8322.260211 16851.341656 13391.553735 14092.216985 14792.715291 15415.610984 16368.987740 13167.087626 7032.021415 16187.017900 7556.875545 18302.668550 20260.407337 20903.405306 14720.904777 12114.041125 14626.256629 15416.962723 11782.574809 14921.482453 10665.490813 8388.161178 13764.857186 6916.147877 18814.117214 19293.123539 20937.067391 11790.693631 13662.869140 15439.592252 15314.698234 8646.931283 14637.990008 14361.941993 15478.069585 12451.387767 7290.193043 19160.742237 18639.749205 19629.115627 10596.173076 14739.086862 14103.359095 15181.520117 16928.091583 12925.294250 16078.749857 6004.519970 8490.400242 11275.513204 19209.403420 17980.407342 15348.207542 14469.903997 11986.942913 12957.349650 14213.697073 18262.558056 11178.386040 9381.069535 18669.278418 6123.591394 3605.508519 19074.562740 17701.025312 12156.278067 14963.922671 14233.131676 11100.293986 10065.493092 13200.279041 13248.285866 14704.925701 9455.419910 6350.963666 11613.671306 18800.728500 15887.526628 10592.819617 12302.850664 15156.535409 12507.805493 13594.303150 14674.807619 12587.972622 13726.858696 11771.988016 3701.193193 8425.689332 18487.646221 16230.463406 16465.091709 13128.591063 14242.211288 20357.863840 11033.471539 20427.021778 13530.658378 10869.058729 19398.784711 10202.761829 3365.478660 18855.312482 17424.451705 20324.279955 15637.901635 16678.912937 13607.073344 16613.130510 14275.099876 11862.614715 17595.635601 13540.149779 11445.789143 3352.165535 19529.733832 17387.323450 14792.633832 12134.067925 8936.203051 17517.548220 15838.288620 10469.529931 13130.990083 15121.275201 7929.836065 10285.828341 3512.000853 19462.112077 19137.607141 18454.332904 18141.910061 21022.722277 15958.923470 14882.102690 13419.954910 16831.153570 14818.688820 11501.541756 18245.035881 6793.173366 19041.940554 19696.318109 22721.428687 13256.968693 18647.051796 11568.164935 15686.965302 16101.320083 13023.966761 11311.101655 9310.705846 18163.538660 4129.740467 18601.962992 18862.013971 20889.820509 18263.221761 15358.621857 12603.404886 12496.805163 11973.056857 17108.508497 18065.905615 4840.858521 7145.325917 5437.516302 18463.327444 18363.585985 20514.861480 13172.199801 16836.178386 20513.102025 14397.799834 18922.874175 20787.182271 13554.382620 13733.682228 18080.061553 4569.696942 18591.506870 17709.131301 16713.460691 21431.932086 20097.840554 13816.477881 16815.878200 15710.018472 13210.822134 15685.810447 9962.737969 3396.296937 7200.279454 18649.535937 17115.249602 15428.993855 15454.859567 8244.479003 11739.126236 19353.406645 22298.228741 20409.960399 7831.868462 6940.652746 14638.608830 9168.539922 18579.146467 19908.385048 22551.014955 10971.010111 15355.813630 12647.595890 15729.150481 15352.998274 12784.923418 15314.837037 17912.915496 12991.195586 5482.230194 18514.368020 20525.572146 23601.762752 18942.626134 16096.074425 13911.083350 18138.718679 18485.863325 17551.976366 15062.849302 17778.390378 8270.753768 2598.585658 18550.492327 18341.916127 16675.805323 15166.163498 16462.445546 19388.694571 15785.688833 12605.191622 12888.839924 16095.810764 12827.250105 21910.680388 8646.485614 18775.037652 19652.482318 16528.003914 19968.980664 21989.594799 16190.781250 20364.871408 19821.593258 20138.954265 11831.974348 10657.219448 11056.809836 4374.566115 18895.729766 20933.374853 19365.954310 16656.942858 20773.608455 18779.845956 20926.838079 11399.935086 25138.650786 12731.533526 11751.182205 4815.585538 4884.871852 18377.733734 18594.117364 17149.323434 14100.285294 14303.701874 18417.626688 18741.083842 22604.854500 9264.711479 17968.804534 6649.531818 7512.166005 7929.148590 16923.644423 15974.569499 20343.964497 11868.610244 22485.388360 13485.401643 18122.854610 12407.244917 13942.607936 3687.382005 18624.975477 14871.133707 11310.575596 15414.766744 14254.532251 20083.343687 19613.434896 17423.351524 16066.754666 16374.051777 11415.975222 17335.429192 11117.810313 14358.449325 15872.006379 6919.268128 14913.550444 19199.259749 31830.193374 14017.676134 17739.324901 20626.498461 13106.083079 20698.461323 16193.289828 18996.546696 16127.448247 9695.283400 13245.760968 15056.641715 17336.815876 25409.640673 16082.556945 16366.881495 21015.600569 16184.229308 12928.436009 18645.186225 20989.912748 17632.896909 12020.972074 14883.532951 15430.412538 15366.897786 16537.251265 15636.750561 18176.928253 13261.409935 16127.562956 15766.386693 14437.235289 15550.206821 21160.540300 15617.124512 15148.591952
</DataArray>
<DataArray type="Float64" Name="Velocity" NumberOfComponents="3" format="ascii">