<VTKFile type="PolyData">
<PolyData>
<Piece NumberOfPoints="2177" NumberOfVerts="2177" NumberOfLines="0" NumberOfStrips="0" NumberOfPolys="0">
<PointData>
<DataArray type="Float64" Name="Pressure" format="ascii">
 14067.820323 13915.988124 13580.416871 13059.844588 12388.320523 11567.031002 10591.608547 9506.170532 8383.961130 7298.350440 6271.463097 5281.134078 4328.701464 3443.513342 2637.697993 1910.598279 1277.883766 749.606065 317.020209 -37.287811 -329.809605 -573.338872 -777.342478 -948.913476 -1093.553489 -1215.824280 -1320.095315 -1411.252480 -1493.461389 -1566.522306 -1626.851706 -1671.924441 -1700.986295 -1714.233499 -1712.357292 -1696.364110 -1667.492597 -1627.151214 -1576.857250 -1518.176430 -1452.666768 -1381.830281 -1307.074876 -1229.687326 -1150.817116 -1071.470386 -992.513729 -914.690681 -838.664239 -765.130676 -695.138773 -630.819505 -576.269232 -536.195211 -511.970658 -501.592193 14178.327610 14089.913140 13861.655942 13447.152754 12914.286652 12101.615008 11044.486835 9951.360954 8818.765442 7707.323228 6645.372840 5582.726785 4541.472323 3595.858730 2762.086001 1990.206078 1315.980826 766.008515 324.341182 -33.411595 -327.268680 -571.386192 -775.666471 -947.273900 -1091.572229 -1212.732111 -1314.522507 -1402.238557 -1485.523859 -1562.799356 -1625.351449 -1671.262171 -1700.603090 -1713.948050 -1712.115141 -1696.150689 -1667.305085 -1626.989685 -1576.721950 -1518.067018 -1452.582197 -1381.768882 -1307.034490 -1229.665351 -1150.810251 -1071.473411 -992.515212 -914.658859 -838.501815 -764.537417 -693.226692 -625.802389 -566.536466 -525.625021 -503.215427 -494.504253 14405.344097 14395.426539 14257.209351 15118.148488 13980.673470 12626.118040 12354.322213 11350.709163 9977.109383 8899.290370 7513.671120 6156.214941 5021.598678 3830.557946 2975.626354 2104.000058 1363.496150 785.165352 332.497905 -29.277323 -324.639546 -569.390452 -773.948860 -945.560416 -1089.405724 -1209.052396 -1306.552179 -1384.267463 -1467.488711 -1557.828413 -1624.224853 -1671.117997 -1700.739045 -1714.157598 -1712.333972 -1696.356938 -1667.490389 -1627.150533 -1576.857038 -1518.176356 -1452.666717 -1381.830172 -1307.074537 -1229.686227 -1150.813531 -1071.458691 -992.475583 -914.566249 -838.258462 -763.805779 -690.851160 -616.119500 -543.998952 -505.256250 -488.124404 -482.612033 -499.068728 -481.077981 -473.902660 -452.817610 -446.296431 -442.739951 -404.796481 -403.230301 -401.805746 -363.456683 -363.028659 -362.532322 -325.992339 -325.898100 -325.708428 -291.778850 -291.782260 -291.691577 -260.519977 -260.551346 -260.493156 -232.020705 -232.058813 -232.012463 -206.111917 -206.150252 -206.109384 -182.630452 -182.667017 -182.629674 -161.414692 -161.448895 -161.414453 -142.304623 -142.336326 -142.304549 -125.143042 -125.172258 -125.143019 -109.776884 -109.803688 -109.776877 -96.058397 -96.082887 -96.058395 -83.846080 -83.868372 -83.846080 -73.005404 -73.025622 -73.005404 -63.409308 -63.427581 -63.409308 -54.938517 -54.954975 -54.938517 -47.481694 -47.496469 -47.481694 -40.935463 -40.948683 -40.935463 -35.204309 -35.216100 -35.204309 -30.200394 -30.210879 -30.200394 -25.843302 -25.852595 -25.843302 -22.059718 -22.067930 -22.059718 -18.783081 -18.790316 -18.783081 -15.953197 -15.959552 -15.953197 -13.515844 -13.521410 -13.515844 -11.422363 -11.427223 -11.422363 -9.629250 -9.633482 -9.629250 -8.097759 -8.101434 -8.097759 -6.793509 -6.796691 -6.793509 -5.686107 -5.688857 -5.686107 -4.748797 -4.751167 -4.748797 -3.958118 -3.960156 -3.958118 -3.293588 -3.295338 -3.293588 -2.737417 -2.738919 -2.737417 -2.274236 -2.275524 -2.274236 -1.890850 -1.891957 -1.890850 -1.576025 -1.576978 -1.576025 -1.320286 -1.321112 -1.320286 -1.115747 -1.116468 -1.115747 -0.955963 -0.956602 -0.955963 -0.835805 -0.836380 -0.835805 -0.751353 -0.751883 -0.751353 -0.699819 -0.700322 -0.699819 -0.679486 -0.679977 -0.679486 -0.689666 -0.690163 -0.689666 -0.730687 -0.731206 -0.730687 -0.803891 -0.804448 -0.803891 -0.911659 -0.912272 -0.911659 -1.057450 -1.058137 -1.057450 -1.245869 -1.246651 -1.245869 -1.482742 -1.483639 -1.482742 -1.775222 -1.776258 -1.775222 -2.131905 -2.133106 -2.131905 -2.562973 -2.564367 -2.562973 -3.080352 -3.081970 -3.080352 -3.697883 -3.699759 -3.697883 -4.431519 -4.433691 -4.431519 -5.299535 -5.302045 -5.299535 -6.322751 -6.325643 -6.322751 -7.524766 -7.528090 -7.524766 -8.932215 -8.936024 -8.932215 -10.575014 -10.579366 -10.575014 -12.486635 -12.491591 -12.486635 -14.704356 -14.709984 -14.704356 -17.269531 -17.275900 -17.269531 -20.227836 -20.235022 -20.227836 -23.629507 -23.637587 -23.629507 -27.529556 -27.538610 -27.529556 -31.987954 -31.998066 -31.987954 -37.069785 -37.081042 -37.069785 -42.845346 -42.857833 -42.845346 -49.390194 -49.403997 -49.390194 -56.785123 -56.800327 -56.785123 -65.116072 -65.132759 -65.116072 -74.473932 -74.492180 -74.473932 -84.954264 -84.974143 -84.954264 -96.656895 -96.678470 -96.656895 -109.685403 -109.708725 -109.685403 -124.146454 -124.171564 -124.146454 -140.149009 -140.175932 -140.149009 -157.803371 -157.832114 -157.803371 -177.220074 -177.250625 -177.220074 -198.508610 -198.540933 -198.508609 -221.775983 -221.810015 -221.775980 -247.125094 -247.160741 -247.125083 -274.652957 -274.690088 -274.652920 -304.448756 -304.487186 -304.448633 -336.591753 -336.631194 -336.591356 -371.149121 -371.189031 -371.147832 -408.173853 -408.212956 -408.169667 -447.703289 -447.738006 -447.689700 -489.759970 -489.779310 -489.715855 -534.360371 -534.329088 -534.217168 -581.550548 -581.351808 -581.085678 -631.527275 -630.761421 -630.019384 -685.269351 -682.332821 -680.354550 -743.283316 -732.367419 -727.785808 -773.126108 -755.617356 -748.046612 14408.229772 13648.949201 12024.504059 10672.606138 11199.476040 10508.315408 9174.371895 8640.433580 8347.722779 5838.088890 4739.815568 4860.540136 1125.606412 124.666011 142.333909 -233.362190 -217.963131 -131.336945 -64.652932 -23.806132 -10.419767 -35.374983 -108.276867 -229.969326 -392.304840 -581.532725 -782.056138 -979.279108 -1161.379917 -1320.157413 -1451.126076 -1553.050309 -1627.140259 -1676.139367 -1703.494616 -1712.726207 -1707.033294 -1689.111053 -1661.122245 -1624.760302 -1581.351402 -1531.959861 -1477.477442 -1418.689468 -1356.318103 -1291.046470 -1223.527058 -1154.373364 -1084.119499 -1013.083213 -940.970706 -863.996087 -794.491292 -764.413305 -751.528690 -746.979478 14423.746639 13998.650507 13071.476087 12335.706357 11670.691767 11034.064789 10302.639352 8931.051399 8329.449329 6986.915321 5344.446478 3930.134414 1935.914597 796.619372 211.878177 -84.447615 -132.519354 -92.993415 -49.275691 -17.871450 -8.290927 -34.847498 -108.399820 -230.272818 -392.549527 -581.612119 -781.944714 -978.999322 -1160.979146 -1319.690848 -1450.644425 -1552.592357 -1626.730152 -1675.787675 -1703.201629 -1712.485926 -1706.836964 -1688.949702 -1660.988126 -1624.647460 -1581.255670 -1531.878565 -1477.409040 -1418.633327 -1356.274698 -1291.018817 -1223.525923 -1154.434701 -1084.362065 -1013.907024 -943.696688 -874.907681 -814.460526 -778.803142 -761.395436 -754.911309 14398.837795 14119.728890 13474.283394 12609.443673 11874.009272 11363.813012 10561.507212 9401.379715 8277.897514 6878.847696 5387.371256 3932.785897 2447.964406 1218.242003 433.482671 62.671525 -48.048444 -54.490775 -33.617403 -11.311700 -4.944961 -32.691434 -106.858433 -229.199205 -391.887393 -581.309264 -781.938397 -979.218137 -1161.348941 -1320.142007 -1451.118594 -1553.046768 -1627.138629 -1676.138638 -1703.494299 -1712.726074 -1707.033239 -1689.111032 -1661.122241 -1624.760311 -1581.351440 -1531.959987 -1477.477855 -1418.690811 -1356.322473 -1291.060691 -1223.573334 -1154.523956 -1084.609446 -1014.680011 -946.114280 -881.880696 -827.706491 -790.308953 -769.394325 -760.957973 14587.047290 14073.210419 13273.953410 16553.620699 13696.503268 11570.178767 14102.282907 12636.349036 10824.718363 10282.213125 8430.541293 6986.317067 5818.708819 4505.608317 3605.642685 2143.749445 1376.047425 789.136475 333.731276 -28.892136 -324.496697 -569.306895 -773.860404 -945.413292 -1089.086546 -1208.243147 -1303.939330 -1375.004662 15012.360546 13808.627202 11582.531239 19758.261128 15525.637111 14032.132185 14738.383965 19035.816020 13049.303598 17894.724331 16322.087409 15478.768556 15380.230594 14917.593697 13811.575105 17086.138728 9500.991198 13671.056080 15954.828784 18041.595526 18223.485299 14923.033092 15733.293750 15375.434004 10778.116441 13561.487431 5652.333099 6822.768826 15281.171248 15180.792204 14846.928103 12651.499736 13051.879824 14460.484372 13563.364806 17692.862612 12647.570811 11607.288351 11301.995113 11750.223131 17311.201873 14523.387773 11249.005227 18514.400279 11577.044305 14940.258236 16142.356636 10356.657950 14963.203403 14546.389472 14694.582003 16704.248766 15408.641121 15810.619489 14042.825020 16212.317643 15431.055762 16734.931331 20668.987818 12261.866900 17577.431933 10343.236432 11678.603695 14385.533065 15658.478672 10331.055004 5216.001492 10584.690498 15156.201532 13173.932910 12898.292299 14899.161738 12668.959482 12169.324617 12099.356013 10622.221892 17246.505639 8606.111469 8522.694687 10787.271147 17916.795154 9971.205638 17206.280523 12786.260869 15820.515773 17805.081183 21507.883041 19985.619852 11295.414802 15506.954185 12710.124946 4168.633630 18592.201828 7697.461993 9084.063574 12416.803642 13391.970379 15365.795456 4195.356143 7071.791634 13647.643691 9354.922096 11962.716683 11045.486227 3204.639210 16536.860731 13887.394313 8134.957257 7648.398588 7138.298594 3755.489136 8094.168208 16350.746973 18183.628284 19566.253424 14571.066546 15268.179209 16051.830705 17284.843103 12630.888118 13800.813755 12103.847125 11994.429474 13214.789823 14434.701336 6633.684444 8149.800805 15845.965281 9446.468078 8002.868614 15887.639579 12059.979070 11174.588067 12363.260053 10291.133134 10092.999500 11658.505759 10578.966455 7631.306190 6934.192940 16468.420434 17219.850948 17270.624618 15858.315045 10967.317176 14375.329600 6184.265833 9278.100115 15700.712499 9168.221724 12686.126343 14501.096165 12989.175683 12530.162003 14739.961230 6952.045088 11931.652419 14643.546034 14308.500255 8883.570650 4883.205730 13334.419561 13048.457632 14980.847465 8664.121226 12053.801410 9082.129094 4879.367978 16294.417188 14889.979744 14358.329001 16843.303993 14809.353182 15883.758751 14905.387994 13267.894796 13648.021374 13949.260147 15214.432774 14371.008546 7480.556224 7419.449244 13654.912964 14139.537951 10577.381538 12909.047280 8629.152532 9745.091280 12696.057447 13053.454708 5998.804544 6600.818381 9638.419137 4846.400580 4234.739714 9413.063785 16334.791118 16550.254785 18262.134672 14481.089933 18071.712170 16565.336562 14891.598233 15832.867832 11761.323723 6484.901211 8881.141703 12734.880987 11149.142112 14318.050940 9212.568603 6274.620329 10121.354471 4877.998657 11027.518919 3156.163735 10981.664761 11249.811104 6344.421160 8307.989217 5535.861991 4822.492341 10066.265174 5267.994285 16463.863164 17699.222635 18123.943471 19649.453371 19306.101463 12628.921489 15452.980888 14229.699438 7159.896250 11265.688386 4902.741617 9183.886990 4768.072113 7020.444976 5916.907334 7776.305952 7081.807365 9171.984355 9429.872822 7333.445410 12112.680750 11856.172234 5553.427312 9881.698159 12536.849868 10579.344104 4448.256537 3945.351538 16541.541835 17767.992943 17610.545293 18012.362661 11929.986140 14463.399797 13543.938036 15185.762663 10552.665637 14873.117253 11982.366562 14409.933718 9622.009984 7123.316985 13399.670660 6833.633128 3915.018458 8485.270922 12441.792864 9409.870221 10469.911588 5143.953826 3122.287699 6597.075422 9337.965411 4704.810608 5326.757113 3687.332321 16604.636240 18190.006785 17126.606218 18740.312024 14112.218507 13687.441959 16912.688674 12931.069837 10264.372547 11384.020404 6440.055822 15233.225567 12742.007197 12493.084193 10893.584629 13489.360548 13314.521497 9459.937652 6918.135253 5837.203646 3919.432195 6050.609459 9495.004133 10107.764623 6648.427058 10252.998269 3881.298934 4619.899470 16780.938024 19064.788945 21606.729856 10397.176649 14818.352214 13522.076046 13448.530604 9178.868762 14909.174992 13008.165898 11886.964521 6046.373639 6924.772065 4674.999297 10018.282118 13100.286706 8450.666832 4222.458451 11262.089663 11721.975370 9356.064772 9379.204341 8918.243700 10212.069364 8780.318064 13897.047350 5588.513428 8873.297757 16996.135367 17474.001508 20094.403241 14766.314656 15932.552991 9516.223000 19751.136843 14551.371904 7192.271603 14897.321257 14090.030035 5366.495687 6377.857678 3503.755166 5324.126123 2746.936932 5349.560555 3272.085456 13470.769947 5457.981747 14671.618386 5671.861520 11205.076823 5642.555997 7633.900811 11391.143707 5168.079298 4679.076134 17241.441645 17393.871813 16553.234837 11291.378520 15815.275305 16286.877909 12240.984790 15385.567935 5750.484704 15143.613880 12734.067759 6792.709434 9164.062218 4737.477792 4683.160959 4272.518104 -1119.054379 5920.093210 6084.577985 6453.488647 4885.825835 3221.927477 3688.128761 3482.099524 4482.526842 5129.613485 3855.833647 3858.564926 17537.793764 18761.988080 18544.848607 17513.576430 17372.159228 18971.438608 13489.716214 15376.096250 11377.089134 9223.322384 10199.607599 6500.165161 9194.227781 17719.035322 17959.928027 18267.174938 13147.990633 18587.031937 13087.361189 16122.871675 10740.159972 15060.585653 7601.661143 5623.748664 5523.883121 5624.356141 17694.603835 17357.129753 16795.457534 9621.089445 15218.087698 16003.488154 12100.848242 11799.838340 4059.012007 7707.449212 6785.673637 7283.123280 4067.353728 17635.527395 16352.640303 16482.735506 11246.871241 13883.649083 9863.105671 13169.564251 10817.514551 7940.181250 8067.220550 6980.291416 14011.010876 5740.883042 17734.991029 17504.596074 18923.130410 17395.868216 10463.008715 7749.147459 9676.375099 16026.590413 12584.742284 9607.883644 3988.067527 8106.293465 5662.706230 17955.523665 18390.357104 18888.359656 18762.608381 15458.269543 12765.858154 10861.709935 11797.152586 10471.122420 6300.423586 7431.084298 6048.669697 7592.397114 18198.095878 19006.555286 20914.815671 13754.261778 18210.577574 12508.313176 13453.960017 8623.466717 4367.269086 13065.568081 4814.857551 8412.426370 3603.321849 18362.990067 18911.544399 19920.784071 18018.255668 16026.033919 15581.454316 8922.473403 4588.930168 10962.645997 6771.639973 6304.047943 3279.611700 4595.099362 18440.112417 18224.050188 17754.001539 12453.571939 18517.042582 14584.973722 8778.650574 9905.313955 13449.985259 5551.356880 7717.311626 3610.524407 4675.209095 18510.407890 18247.478005 16365.234709 8936.946828 15143.137297 15605.771213 9325.495780 11973.124490 5965.387334 8044.840523 10060.472251 6631.769530 7833.756801 18540.916457 19634.313968 18944.862656 18131.951640 16306.942710 14289.860386 14922.386545 6227.862869 2803.174907 7537.220918 13262.960017 13831.181575 7852.252224 18535.884063 18675.164518 18869.490426 12752.350364 12611.826193 15003.883451 5828.964778 10500.622538 7250.449671 12708.930660 6986.151369 10500.778595 3841.534106 18532.924025 18181.142516 18565.506794 15510.144575 15770.836136 18165.057605 13513.030822 14925.353297 10042.464493 7876.040101 15722.291164 5832.083381 7622.337449 18476.340775 18034.155847 17744.756426 14789.044825 8621.000012 14239.545078 8767.785356 6968.298370 12905.695915 14291.387817 7718.969011 7901.688036 8222.420134 18594.169183 20115.527904 20992.531607 11828.729819 12423.237177 16705.322598 9801.050209 16287.177222 5656.216464 10054.389341 6195.665499 10767.615042 7188.278106 18859.881244 19798.370037 19453.948748 16425.035653 11342.353600 19066.105578 14030.093900 10385.461513 13496.150945 7111.502853 5993.021251 9731.055054 3931.575884 19087.833621 18943.246253 17197.553325 13665.248591 11029.221303 10792.391630 4991.292108 16278.589407 7849.548095 18122.364781 9275.942661 6335.269231 4933.858811 19402.631675 20499.870035 18267.199944 18032.137186 13791.015303 15898.789758 10307.233023 18589.132272 10848.015723 12738.790938 11664.415270 7822.256788 9320.615491 19556.847809 20656.507766 19444.142213 15410.209807 12456.710565 12907.088039 12680.772060 12319.844469 12020.209144 7809.597005 9992.326782 6140.908248 3249.937608 19441.682722 19376.121237 19352.883125 17546.721260 19709.206583 8438.983856 7223.585827 10531.248403 8221.045036 14479.724244 8102.370747 3916.268784 7984.077231 19443.013153 20470.272262 19144.587044 18762.864255 18503.030188 13174.547588 10793.084624 10684.039894 8616.871862 5308.109349 7359.771495 8184.085075 3512.555663 19551.409978 21333.622245 20538.173126 19111.695124 18388.681265 18404.190726 10344.507753 14875.949176 9991.449505 10207.421783 7492.027822 4597.951402 4021.857355 19447.383754 20090.077955 18332.907170 20482.826917 17065.700464 13832.073175 14376.419298 11680.288118 10846.117146 11640.397371 6525.488844 8926.428703 6631.574495 19150.883190 17470.066313 16069.476219 14461.750435 20259.020800 13811.543399 11539.198107 11644.615870 13171.465887 15718.757298 11008.930837 8261.413249 4588.877086 19350.778844 18914.333646 17800.791219 15732.863737 18118.663299 16592.574868 14581.526418 16007.940998 15238.246517 9340.568633 8078.558125 8842.237286 8597.939210 19744.192182 20126.646501 21669.356419 19911.659409 13421.528486 5805.468583 13353.972456 17249.031806 12904.980183 5034.748452 5533.032799 9784.561135 9147.565270 19850.706160 19218.322517 16407.101706 10070.777711 13894.503391 12608.009777 8933.891196 11113.990751 9772.618804 6965.403156 6585.175931 6841.427591 9577.359540 20063.602576 20458.753016 18492.488108 12506.139425 10952.089078 8725.757871 9235.110043 8423.538968 9656.390060 7052.656724 7041.548462 6589.227380 3382.813041 19855.628661 18614.006763 17948.361047 16905.073817 15333.724059 11456.115309 11047.657931 13066.726527 7584.195773 8563.686086 11467.931812 7102.825132 4334.100757 19551.086780 19762.651465 20796.850009 17987.183328 19259.569177 13243.612438 17055.186021 14407.732809 13513.129312 10517.610571 7338.331389 5807.442972 4580.428149 19267.644770 18178.472545 16960.263895 15889.142258 8598.583343 16277.223684 11771.151083 9379.522442 7782.962804 5194.596009 10504.921156 7219.676532 7808.952020 19253.590493 19363.272215 20648.955550 20882.057621 20092.499560 10532.766142 16631.434722 8292.578014 6396.548762 12969.163091 5030.863989 8628.404270 5154.685274 19563.085546 18275.702542 14825.212656 14022.195409 15637.207586 8010.715114 8459.962213 8012.226985 8218.290843 6638.130227 7173.670414 9395.114466 7336.825290 19819.875535 18266.195001 15104.811601 19906.449447 18057.968384 11124.834554 10379.374057 14146.828152 13842.578813 8244.768792 7573.200207 6050.831163 5806.685657 19883.257064 19535.814353 19275.337205 17028.003990 17127.550006 15641.540339 10302.843695 11394.483882 7703.520639 5415.479351 6789.563768 3298.303737 9313.925089 19826.176156 19927.218740 21176.163248 15997.039192 13085.319891 15707.823342 17398.701939 7179.544504 12097.596279 6566.279232 7352.023492 7201.704866 3688.074559 19752.444172 20001.447917 20854.901334 17559.785585 16753.978648 13347.395494 10125.451175 2368.278278 7882.241348 7213.835281 7065.168137 3687.755769 5311.778274 19724.788296 20143.145402 20294.721552 13486.994602 16244.859709 9330.416319 14021.268955 8694.862190 5190.606048 11321.728686 10761.302410 9691.512169 4809.992498 19589.827164 18823.801743 18403.913674 19460.534402 14225.287403 15650.596744 12358.165905 14922.218385 10595.538820 6763.107516 6741.466222 8347.037665 1138.752839 19522.688015 19006.200291 18825.665694 17000.885071 15243.528403 18754.599561 14396.855069 11518.702783 4965.584668 8460.032744 6680.416682 8336.687440 1516.140411 19353.354961 18042.432057 16053.683722 14274.170072 13706.082511 15756.624691 9339.705030 17894.616191 6121.576263 12015.049196 10623.707298 17702.941490 4927.946779 18972.452698 18023.366499 17662.102848 18670.691206 13486.096836 13936.282142 15505.652294 5650.968600 9824.265262 8960.647370 6317.559809 7306.074740 4799.361845 18739.646751 18308.114385 18216.345306 17829.927464 18876.507819 17698.881325 12780.438367 18190.592557 12175.656248 7592.120945 9941.408974 14198.812591 4085.550105 18835.459261 18879.583943 18912.397509 18447.994827 11052.291419 7549.060590 12102.905001 13974.228682 9921.545468 5919.242031 6355.769101 6054.269927 4645.326872 19093.481457 18762.558237 16998.688662 16154.265011 16263.180351 15458.367740 13455.580400 10505.001444 12045.445419 3408.007341 8115.624567 7942.046525 3613.895607 18934.548717 17064.322244 12245.953295 10560.845624 16054.731758 13427.533089 8681.427813 8845.839226 4929.996123 9858.582278 14193.674201 6381.556292 6606.009202 18328.894875 15733.075389 13194.804510 11513.754812 12180.772532 17236.363825 14319.596458 9619.691648 5045.544292 6878.615846 6047.189905 4327.329736 7009.553633 17956.162048 16934.809020 15812.312015 13421.476259 15264.222207 14530.875611 15534.517680 5551.626617 10005.220472 8341.576961 8245.457290 7992.856464 791.755891 18098.729461 20061.164031 22628.808262 19400.898845 12953.811254 19475.880850 12149.128364 9192.191862 8621.773351 9274.850404 2168.625542 9924.655364 3893.824162 18266.279262 18735.464151 18581.938595 20729.041265 15929.866412 15767.365960 9041.648166 13652.467453 12832.223693 8803.481743 10067.282851 5766.977988 2816.785476 17970.219681 17157.402576 15425.143137 16689.731258 10921.174193 19586.742723 9478.885129 13386.533408 9319.618856 5483.184738 10144.409341 6559.682363 4485.331944 18035.344502 17250.185206 15314.453840 19262.860318 18534.549500 12948.957013 8115.803524 8775.454679 10763.293635 5149.805143 7086.882005 9622.355522 5597.716361 18403.766920 17991.157236 14322.980917 15097.168263 13546.874880 5529.272590 10555.015866 10350.437204 17339.285790 4969.684681 8145.729302 7182.011783 7539.062782 18312.481381 16882.879583 13248.746119 15954.111197 9349.216964 13099.232097 10742.131277 12324.460932 7587.986808 10293.912468 8658.157917 11678.803346 663.150599 17625.563956 18486.110180 16912.435022 13964.475179 13240.926001 7281.618510 13788.516769 7392.491710 8895.497219 8471.804579 5086.820436 9610.365561 3499.095007 17086.916886 20963.424993 23890.532276 14853.955433 8160.421854 21433.109973 11171.683660 7860.072788 12094.169183 7962.055844 8495.965920 4743.146177 3860.134644 17176.475500 18767.718104 19840.884815 14207.901804 10338.326737 7191.517697 7973.602988 12407.656942 11973.541188 7993.177210 6422.113431 7030.434194 4524.353885 17537.569830 17180.025965 14966.410261 19959.028310 11190.716398 15531.282411 16359.548690 9025.229006 11763.639151 10068.402601 9812.995904 5418.018709 3518.034828 17441.138435 16718.374751 15706.970161 9898.144925 15208.828326 10727.604511 14207.726990 11596.159669 13447.560800 7735.778673 7775.350642 2193.939714 2447.072349 17090.582828 18279.644435 19498.508416 15926.493557 16357.090693 9465.828594 13217.197926 9739.618099 9008.851395 10493.823422 6040.434375 6789.876415 2236.469121 16822.329770 15277.996174 12917.723211 17570.086676 10609.487825 13132.446606 11865.713393 6871.470048 10759.660639 8975.402941 9238.126108 9392.033116 1477.578479 16689.180033 16154.733755 16120.409160 9824.350001 15516.530217 19350.621211 15593.495250 8859.160565 9282.609506 11333.419545 10169.288090 4152.961889 4318.870272 16561.201975 15396.826325 14118.174652 17398.742189 11992.861054 8394.054016 13231.251850 6700.475656 14035.114487 7445.114280 4132.324026 3267.091438 5913.203354 16400.529984 14072.960046 12338.456914 16404.245593 8944.374698 12829.427535 18547.618458 12731.957741 8892.533210 4891.785798 11379.658146 4820.864253 2911.452683 16298.538178 15729.867681 15950.220296 15106.363556 10326.729255 11372.913350 7999.407592 12254.224506 10059.491039 16731.578029 6769.278535 3855.707165 9038.007446 16379.762696 17932.579253 17993.363674 15758.641418 14986.892898 9933.113659 8869.950888 7342.654207 9592.416893 8919.252189 8460.485418 2852.351656 5353.448710 16380.068885 17066.127939 14578.885551 8093.345799 14400.512627 10471.961331 12489.598998 15140.061167 7032.101416 13682.453658 11427.007290 4104.431651 5090.804324 16372.545159 13877.594287 9510.175732 14927.224882 14807.786422 10924.452953 9758.857477 14775.148729 7429.346960 11873.308711 7956.502441 7794.631355 2702.756618 16441.135039 13949.528006 11151.206645 13278.373301 8026.665732 8332.068127 14010.791840 8658.906541 12238.970461 10832.210997 5665.398784 6593.681265 3292.982187 16439.716275 16585.261900 18841.503607 17200.011529 13038.082394 10267.374226 12465.044774 13248.542351 10871.043087 8960.483475 6310.520575 8085.696965 1825.777418 16403.888251 16520.061373 16496.350457 12371.516594 9182.488257 9478.516762 9896.819071 10170.771740 12950.211115 13370.543141 922.807052 7334.303538 3984.991280 16467.852235 17066.912259 16952.293065 17461.867512 11507.623179 7236.572865 12281.379850 13883.524002 14818.688074 10314.809427 4083.166718 6771.819571 7618.326850 16385.395598 16110.099433 15729.122013 11162.865211 12035.466483 14943.820338 13739.598323 12716.286001 11783.918203 12460.490617 12607.921872 14196.500445 3552.544451 16393.217320 16737.314401 16434.600449 16453.405394 13485.637593 13220.878600 11947.507235 11560.209084 7804.432860 7667.192270 8711.848166 4734.809412 3472.879743 16552.410848 17737.109433 17641.722922 12127.832443 10952.757677 9554.113913 11558.365294 11696.185993 12094.113826 5366.021977 3482.441895 10583.199793 6372.000863 16507.487973 16028.159196 14902.566925 13157.659306 12651.168040 12646.030941 9562.190823 9455.228330 11554.754648 11796.279385 11260.160660 5116.132178 3655.235729 16527.775639 16135.962984 14589.868313 14845.887103 17925.015065 8968.720012 13080.583859 9431.037117 10230.152186 12967.620426 10817.413866 4983.137708 5720.041379 16648.288873 15382.765289 10661.371538 12827.489260 13531.735477 8266.551841 7843.001785 7905.394143 10693.263356 7734.436708 9587.564513 10743.805379 10292.902132 16498.496072 15527.308800 11550.363554 13042.506300 12439.167047 17876.010164 12496.636557 8837.726535 11141.570687 7520.878914 6448.382874 6665.854301 2771.169881 15885.024531 15231.581050 12358.891120 10301.469086 8543.642282 12647.993514 11413.471572 9623.438689 8879.285629 9126.797187 8849.785912 1966.301563 5468.339252 15238.476490 15526.958197 13905.656686 16367.400716 10826.030574 13624.443303 10526.202287 6209.605399 6792.603441 9461.663426 3481.955173 5766.448264 5328.592988 14750.952584 15194.132868 15554.086640 10424.572195 10051.255247 10038.241021 7673.992064 9035.361367 12375.453517 5761.828144 12881.943654 7339.436499 9203.937096 14461.060980 14220.164607 15523.470288 12339.545990 10568.466146 11459.639684 15715.970133 17512.928705 12076.718886 11157.510359 10445.086343 9858.894395 6339.120667 14472.763355 14197.654807 15433.546423 14389.028481 14969.932804 13640.974215 16642.219066 14757.380762 9553.561501 12309.188887 14921.024438 11280.206188 10475.908963 14413.304359 13597.095773 13034.179998 15037.903395 9838.621098 14050.808373 14243.952727 11910.651875 12410.416288 12184.809465 13671.346845 11265.457025 7812.359240 14408.229772 13648.949201 12024.504059 12066.507083 8475.654825 9875.216014 15989.382359 12610.692731 11585.456284 13394.267337 13872.308414 15074.676785 13087.425591
</DataArray>
<DataArray type="Float64" Name="Velocity" NumberOfComponents="3" format="ascii">