<VTKFile type="PolyData">
<PolyData>
<Piece NumberOfPoints="2177" NumberOfVerts="2177" NumberOfLines="0" NumberOfStrips="0" NumberOfPolys="0">
<PointData>
<DataArray type="Float64" Name="Pressure" format="ascii">
 13592.894401 13439.952659 13139.827555 12664.968593 11997.476439 11134.443938 10119.809655 9030.089781 7934.128896 6825.921750 5734.997262 4718.476311 3848.568011 3146.155584 2580.773035 2137.784656 1804.818071 1550.198148 1339.448250 1149.427458 967.341004 786.317264 603.135005 417.410073 230.810458 45.714373 -136.778020 -318.721517 -502.607352 -682.965911 -848.133219 -990.187127 -1106.357401 -1196.760840 -1262.949043 -1307.168827 -1331.957472 -1339.894410 -1333.446817 -1314.882120 -1286.229568 -1249.275629 -1205.580031 -1156.501999 -1103.229330 -1046.806145 -988.158411 -928.121009 -867.480787 -807.079509 -748.102112 -692.742676 -645.025995 -609.597790 -588.068693 -578.853577 13600.561555 13516.969653 13230.657435 12668.731345 12009.968771 11149.382728 10194.787655 9162.395111 8042.966536 6872.263182 5793.918710 4748.760100 3882.097176 3231.858615 2657.645380 2171.326818 1812.142577 1549.570126 1338.037541 1148.567394 966.871504 786.078772 603.213726 418.152090 232.985228 50.979544 -125.425202 -299.193140 -484.968248 -674.682281 -844.864912 -988.830903 -1105.644102 -1196.275550 -1262.563682 -1306.844615 -1331.681565 -1339.660747 -1333.250788 -1314.719387 -1286.096005 -1249.167457 -1205.493884 -1156.434824 -1103.177960 -1046.765977 -988.119255 -928.053920 -867.296259 -806.500778 -746.310507 -688.077643 -635.936120 -599.541333 -579.554716 -571.850277 13709.864790 13816.549300 13336.117045 12252.519621 11833.181326 10721.811756 10214.501462 9264.852643 7681.467470 6401.706409 5877.523835 4482.960069 3848.891829 3394.759403 2796.870312 2228.447269 1824.514166 1549.638495 1336.543449 1147.592299 966.353057 785.843566 603.344011 419.036489 235.560632 57.546330 -108.819042 -259.856544 -444.007243 -663.039730 -842.063296 -988.307407 -1105.776337 -1196.581064 -1262.893400 -1307.151599 -1331.952136 -1339.892756 -1333.446302 -1314.881952 -1286.229489 -1249.275517 -1205.579711 -1156.500969 -1103.225982 -1046.795253 -988.122957 -928.005608 -867.105237 -805.855819 -744.148989 -679.232710 -615.089676 -580.210356 -564.836506 -560.069493 -573.848670 -557.551410 -551.220602 -529.193315 -523.242398 -520.100728 -481.464320 -480.036820 -478.761367 -439.284229 -438.889704 -438.447254 -400.207467 -400.117376 -399.949914 -363.790152 -363.790315 -363.710831 -329.868654 -329.895686 -329.844230 -298.357037 -298.391466 -298.349517 -269.179848 -269.215558 -269.177533 -242.255093 -242.290086 -242.254380 -217.491249 -217.524826 -217.491030 -194.788340 -194.820227 -194.788272 -174.040000 -174.070080 -174.039979 -155.135627 -155.163852 -155.135621 -137.962344 -137.988704 -137.962342 -122.406704 -122.431215 -122.406704 -108.356137 -108.378836 -108.356137 -95.700151 -95.721091 -95.700151 -84.331312 -84.350556 -84.331312 -74.146017 -74.163641 -74.146017 -65.045099 -65.061184 -65.045099 -56.934268 -56.948900 -56.934268 -49.724419 -49.737686 -49.724419 -43.331818 -43.343810 -43.331818 -37.678195 -37.689003 -37.678195 -32.690748 -32.700460 -32.690748 -28.302079 -28.310780 -28.302079 -24.450068 -24.457843 -24.450068 -21.077712 -21.084641 -21.077712 -18.132923 -18.139082 -18.132923 -15.568298 -15.573760 -15.568298 -13.340878 -13.345711 -13.340878 -11.411894 -11.416162 -11.411894 -9.746507 -9.750269 -9.746507 -8.313550 -8.316862 -8.313550 -7.085274 -7.088188 -7.085274 -6.037109 -6.039672 -6.037109 -5.147424 -5.149681 -5.147424 -4.397312 -4.399304 -4.397312 -3.770388 -3.772152 -3.770388 -3.252601 -3.254173 -3.252601 -2.832068 -2.833480 -2.832068 -2.498926 -2.500208 -2.498926 -2.245202 -2.246384 -2.245202 -2.064709 -2.065819 -2.064709 -1.952957 -1.954020 -1.952957 -1.907082 -1.908125 -1.907082 -1.925807 -1.926855 -1.925807 -2.009409 -2.010486 -2.009409 -2.159714 -2.160846 -2.159714 -2.380113 -2.381325 -2.380113 -2.675588 -2.676908 -2.675588 -3.052768 -3.054223 -3.052768 -3.519993 -3.521612 -3.519993 -4.087399 -4.089213 -4.087399 -4.767020 -4.769063 -4.767020 -5.572903 -5.575207 -5.572903 -6.521232 -6.523836 -6.521232 -7.630475 -7.633418 -7.630475 -8.921526 -8.924850 -8.921526 -10.417867 -10.421617 -10.417867 -12.145729 -12.149951 -12.145729 -14.134253 -14.138998 -14.134253 -16.415656 -16.420977 -16.415656 -19.025388 -19.031340 -19.025388 -22.002281 -22.008921 -22.002281 -25.388682 -25.396070 -25.388682 -29.230572 -29.238768 -29.230572 -33.577659 -33.586725 -33.577659 -38.483436 -38.493435 -38.483436 -44.005212 -44.016206 -44.005212 -50.204093 -50.216144 -50.204093 -57.144915 -57.158082 -57.144915 -64.896118 -64.910458 -64.896118 -73.529560 -73.545125 -73.529560 -83.120251 -83.137089 -83.120251 -93.746017 -93.764167 -93.746017 -105.487065 -105.506559 -105.487065 -118.425467 -118.446328 -118.425467 -132.644531 -132.666769 -132.644531 -148.228076 -148.251688 -148.228076 -165.259588 -165.284557 -165.259588 -183.821267 -183.847557 -183.821267 -203.992953 -204.020509 -203.992952 -225.850935 -225.879682 -225.850934 -249.466643 -249.496482 -249.466642 -274.905225 -274.936032 -274.905222 -302.224015 -302.255638 -302.224005 -331.470898 -331.503152 -331.470866 -362.682588 -362.715240 -362.682486 -395.882837 -395.915569 -395.882504 -431.080626 -431.112909 -431.079547 -468.268490 -468.299182 -468.264990 -507.421410 -507.447450 -507.410056 -548.497683 -548.509830 -548.460854 -591.446408 -591.415196 -591.326952 -636.237421 -636.065281 -635.849941 -682.962101 -682.315122 -681.706211 -732.372482 -729.899374 -728.282476 -784.623656 -775.453880 -771.731845 -810.946435 -796.394373 -790.178544 16500.685740 16817.867068 15232.078686 16909.059418 18415.481027 15099.162277 14622.043002 16369.441136 14901.941212 16972.417757 14861.973089 14843.952383 14289.986499 14757.406945 13253.718418 12918.808397 12372.191645 10612.793322 9834.462817 6765.792188 4778.634040 3857.460474 2242.944862 1130.020261 73.934781 -417.235522 -652.278688 -798.533476 -912.072813 -1008.783518 -1093.289287 -1167.076507 -1230.610800 -1283.986112 -1327.188959 -1360.230388 -1383.215463 -1396.375860 -1400.078279 -1394.816756 -1381.194869 -1359.902471 -1331.690492 -1297.346399 -1257.671874 -1213.463296 -1165.493920 -1114.492834 -1061.104410 -1005.771425 -948.403806 -885.980285 -828.702669 -803.694778 -793.015777 -789.344896 16235.670598 16448.847088 16662.096883 19000.113244 22216.265013 20292.245182 17163.552648 16947.889849 16379.827049 16643.033194 15761.806823 15319.852779 14698.706922 14243.712910 13597.220921 12921.196908 11762.579648 10076.867351 8141.088265 6248.741258 4728.847241 3504.141518 2134.136151 834.390129 -6.033282 -432.285489 -654.208800 -798.529369 -911.883571 -1008.603002 -1093.121301 -1166.912898 -1230.447256 -1283.821468 -1327.023926 -1360.066711 -1383.055369 -1396.221678 -1399.932182 -1394.680603 -1381.070119 -1359.790169 -1331.591327 -1297.260873 -1257.600793 -1213.409219 -1165.465733 -1114.520560 -1061.287774 -1006.446684 -950.681304 -895.119362 -845.642535 -816.226181 -801.855831 -796.564267 16023.945781 16130.244987 16208.069792 16943.783709 17954.986717 17787.358144 17420.164269 17266.588965 16496.936297 15773.158155 15237.744877 14722.342066 14226.635853 13708.694627 13010.036967 12013.331817 10709.201778 9152.702285 7450.685715 5748.787123 4197.815055 2827.307047 1577.472395 564.386766 -90.009721 -451.193492 -657.806020 -799.289235 -912.164854 -1008.794199 -1093.290560 -1167.076673 -1230.610824 -1283.986116 -1327.188960 -1360.230388 -1383.215463 -1396.375861 -1400.078282 -1394.816766 -1381.194903 -1359.902579 -1331.690843 -1297.347538 -1257.675577 -1213.475332 -1165.533040 -1114.619995 -1061.517650 -1007.116662 -952.732936 -901.000546 -856.871936 -826.188284 -808.978415 -802.058220 13863.627921 14213.229828 13282.595584 12044.200727 12399.954507 11238.085626 10329.091409 8903.058894 6898.745032 5048.996385 5172.503748 3665.886357 3509.018338 3521.868019 2875.742981 2248.154198 1827.300870 1549.114059 1335.914846 1147.261284 966.219624 785.818990 603.417294 419.285596 236.231242 59.348411 -103.032327 -239.241778 14286.310373 15384.924095 14523.605318 12513.170940 16635.314699 12501.686218 15060.388814 11419.508261 7397.156802 12250.096609 9801.531714 13195.072965 15363.716497 12372.474209 12885.324189 14591.031711 13421.531161 12156.813298 16431.364965 13247.286125 15121.952556 13861.648448 11128.496415 10385.552324 11736.770330 9866.791891 3389.918447 3866.448091 14479.360371 15276.360034 13769.957746 10046.370778 13945.578100 16584.416304 12402.811496 16563.375981 8496.938482 9564.887085 14393.775079 9962.221084 8606.553041 11496.140928 6693.467270 16358.070691 9386.741618 11501.143781 15011.005129 10100.882287 16292.342884 13894.535406 10712.018679 13831.328876 15919.809883 8758.517204 13074.361971 8677.423678 14307.978438 14068.032700 11911.102154 11389.441320 11486.109026 7709.102541 9308.475638 8166.058695 15237.271023 10242.342857 4424.917846 9142.230564 11349.624122 12250.546038 13173.045920 13045.144254 7020.128684 13491.464631 8066.257052 11282.232541 11807.523101 6174.811689 8136.129950 10906.443015 15343.425313 7879.136521 16450.491533 8711.024872 14225.268337 15955.921230 16608.266554 14740.628602 13394.104013 10701.274000 8599.553513 4724.530238 13749.673496 7098.454302 9713.717045 10742.356973 12122.042272 12237.043701 1605.283985 6921.859149 12775.380307 11549.430881 13388.389257 12320.990149 4594.743235 12678.160011 10988.440060 4616.174213 5760.523266 6900.079859 4242.268015 3055.343496 14461.582271 14970.183846 14188.917660 11845.171563 10056.589438 12186.548278 12791.538687 11630.093998 14098.952595 8350.914434 11353.872782 8798.630253 13338.450205 5994.892657 10972.888579 12142.893823 8029.415704 8553.353473 14089.605127 12704.801118 13002.521710 11854.938847 12407.029328 9337.497307 10724.543432 6918.333866 8900.782730 7115.018474 14796.724733 13610.505315 9750.315559 9453.448027 14000.550819 12130.313549 4612.657372 7459.019827 13887.323311 5893.335807 10593.350554 8979.233914 9546.133455 13171.703268 11497.427737 7787.504534 10442.893370 13243.661955 8268.004545 8261.015511 1330.932297 10513.673153 12642.836054 11869.307294 5561.553660 8639.316774 6734.082182 5569.504909 15023.111544 15117.309290 14305.773808 13726.482034 12700.656946 10986.581133 13700.248296 9039.987523 9463.891007 10676.600798 12937.525523 12404.917853 6753.213603 5350.199586 17693.968773 9649.651642 10411.909476 12402.569955 8914.886175 7889.836407 14015.284320 14052.202300 4630.060804 2907.977141 9138.177673 3469.796378 5483.714854 9176.772892 15235.192743 14796.348433 13728.674103 11482.671670 16137.217831 12398.557655 11826.886737 9008.129690 9760.931933 4743.084679 7445.208542 10481.018594 10048.116000 16600.519407 11235.730762 4919.081683 8671.958396 4086.475057 11480.613401 4224.026649 5640.864645 6472.187411 8374.219605 10082.571708 6359.421808 3221.372469 7934.437154 1452.554865 15442.965089 14784.341765 13128.962937 15138.444235 14066.867379 12952.316602 13877.687161 9845.079833 6443.872460 10256.469759 4651.077582 7469.073487 10173.080083 5810.612897 6322.394247 5778.225831 7495.634549 9194.079790 10365.197855 7165.028208 13581.530056 9897.443584 7233.853167 12732.957447 7505.106262 8368.863974 3884.576163 4958.284624 15395.699171 14957.472373 14252.707725 9005.468843 11665.983270 15527.195489 11951.453593 12414.489264 7700.215015 13757.561365 13289.160958 11409.406348 6232.100048 5156.502685 17881.965969 3502.581684 4486.105957 6317.559576 8974.696972 7107.358189 7835.252652 4336.903819 3803.385457 5687.487798 11430.263562 3909.119402 7783.289103 2807.610120 15195.058567 15908.624234 15936.509285 14922.696975 12081.582349 9703.653897 11147.815016 10236.584396 8407.009338 8925.155398 6169.083725 11799.914253 12319.644855 13004.754083 9344.769399 10952.761915 7982.904968 5616.347894 5916.126358 3081.440509 5695.131729 5666.802047 9434.774602 7568.262921 5478.493120 11913.790521 5546.513450 2768.580601 14866.190146 16787.270125 16690.485195 8360.350881 10915.680144 12545.778699 12475.078696 5937.466313 11412.181748 11488.482745 10234.832081 6999.398402 7188.506433 7380.819024 10410.859815 11256.699630 7619.340152 4704.642834 9363.029575 9761.015867 11128.948844 10162.088614 7008.972700 6675.618521 7162.325103 7314.587953 3337.416751 7566.265973 14705.089708 14684.359968 10409.566461 15156.975077 13735.556843 7400.161500 12609.808482 10936.783086 9635.347613 8028.207634 12855.528696 4010.829617 6497.793481 5500.935820 7733.040711 6817.053683 6006.880138 3899.398579 10971.184704 7001.182250 10098.901151 5304.413494 12155.134667 8406.388988 5638.664505 8350.747355 3819.465739 3913.610552 14728.773911 14180.328348 10790.971714 10465.474262 14726.094890 12448.928898 7422.189568 12671.816017 5546.476591 12640.368414 13746.652762 7643.977567 6979.980965 5725.406161 7391.921390 1264.431621 5351.824802 5257.775239 5604.215930 5497.115809 4208.198381 6033.199519 7504.530019 5819.712342 7999.365126 5142.417564 5343.702520 3451.396644 14850.808953 15557.165477 11268.071593 13971.723161 14749.218550 12985.316251 9610.513983 11818.746111 7446.842116 7165.771885 9461.861730 8687.631800 4811.774079 14875.203042 15233.577024 13535.659567 13649.653305 14826.142981 10653.669722 13386.312428 11049.795482 13343.386476 6314.442586 2629.706547 4971.914980 5435.351627 14738.829981 15307.522170 16823.024390 10181.417056 5575.374294 9664.218713 7889.839302 9749.586210 5975.131643 4935.260520 6345.124590 5578.616284 5722.224301 14684.217907 16588.614698 20915.144634 9084.158984 14863.235561 9395.032074 10935.885120 6090.750771 6222.834283 6847.559576 7808.844840 10789.416725 5192.675355 14877.864573 16045.323815 18305.695939 15670.390706 8104.891270 6175.854954 5388.489421 11821.219808 12113.986017 6853.901294 4328.281840 5853.278162 4414.534635 15279.002214 13572.371926 11047.756408 16425.406096 11641.738028 8165.120237 8813.665375 10996.017578 11295.915271 5248.727813 9147.818588 4863.211573 3206.874846 15781.513179 12413.034444 6747.850679 11866.187471 11184.167476 11885.651382 9908.629942 5710.256341 8723.347789 11009.385507 5884.482040 9914.365000 4762.601956 16139.056410 14161.186933 9757.176503 15311.373571 8822.323542 12068.958195 8976.220840 5268.998507 10741.347536 8633.392291 7089.568969 5963.285817 5870.782463 16081.700790 15034.552608 12733.838615 12336.341949 14956.102016 14489.001060 9312.260508 9737.791892 12033.914665 5861.266194 5273.752035 5775.178162 653.888695 15733.811890 14462.766762 13481.616215 9773.252355 13559.145971 11469.285619 11515.280988 11167.316725 7151.059218 6764.628604 9218.265675 4715.216187 6325.081267 15391.426376 15694.249954 18316.373913 13666.796098 14811.802920 10391.117175 14302.775747 8727.980793 4057.749674 6939.490695 15460.463180 10145.764800 5690.730459 15294.451899 16267.383517 16501.175474 14710.402633 12441.594842 14087.638010 6422.965383 7666.225149 7499.967458 13142.620529 4760.855188 9233.658455 6547.868528 15451.625325 17615.645949 17589.089583 9004.597446 13364.251911 15008.628357 10672.130937 11475.728022 11241.414612 8901.416372 11927.864362 6731.548921 4287.624684 15743.265994 19081.984597 21495.923795 13618.353222 5628.685931 8349.430394 6207.722377 4130.027646 11944.687152 9610.528807 8225.294029 8176.481375 4342.299221 15899.658355 17496.969440 19205.584884 8913.621844 14024.137277 14990.288464 7891.104074 12602.466993 7004.734545 6859.312143 4437.541568 7135.308128 8780.949378 15722.055848 15145.915505 13863.905026 13265.190840 11775.287598 11978.078793 10757.652092 8784.064576 9515.921601 6176.765983 7689.911639 9581.826019 4171.486893 15594.422270 14812.935050 14043.134136 11150.895819 9186.980122 10647.734937 2317.585110 14974.137144 5301.657859 13355.029912 6702.363596 7478.321839 2126.665275 15634.394479 15216.433573 14389.634158 15816.563006 12654.990484 14013.962030 8682.558599 13544.691322 9710.909323 9712.843258 10467.241899 6181.631570 6482.023468 15606.382032 16097.653039 17397.835539 12324.282802 10149.361761 9340.510899 9943.141090 8525.683200 8489.876816 5769.615230 7055.820847 9841.940530 5100.441784 15514.668844 16600.313001 18856.555599 13108.641199 17177.513285 10317.604350 10099.409601 12943.466937 6407.694078 15988.526500 7367.632948 3948.730774 7156.391901 15643.567094 16456.122294 17452.371542 14791.723809 14373.626683 11935.056682 10595.667327 10443.687571 12107.795635 6441.643418 7407.993197 6616.687266 5425.005359 15875.442311 15494.400513 13298.315794 17283.030056 10718.478099 13906.872176 10424.285686 16041.901269 5978.915200 9304.609589 5584.471167 6192.380004 5207.665816 15881.539007 15122.418294 13453.999041 13230.983387 13851.696391 9748.849003 12925.894036 12311.403003 8781.407819 13896.853497 7363.102583 7409.329419 7009.079852 15883.618838 15851.941315 16502.069256 12391.233625 13225.878632 8106.958156 8860.091861 12206.477735 14307.556593 12441.651540 7785.342992 5924.737799 2932.933835 16110.695077 15544.433412 16195.473947 13922.459275 12684.750230 11160.020146 16290.007416 10041.935440 10514.107088 5555.448893 4562.253225 11356.321342 3199.603714 16263.467982 13975.175513 11712.477969 14861.796699 11012.962736 1873.556711 15175.699660 11479.506451 11855.523008 5867.449978 9016.992004 3994.562165 11225.057855 16158.143558 13013.728243 9116.991812 11310.406487 10114.170500 9346.567334 11241.729213 9350.618921 12165.520968 6437.590064 5341.627279 5834.272126 9932.775318 15896.238691 14767.656033 13012.821758 8043.852289 10400.478694 8308.261980 12062.444790 9151.222522 9418.102512 5986.624948 6988.433049 10765.673132 5179.332346 15786.080735 17646.413717 18908.470829 12843.064946 14788.530078 13300.178258 10146.547003 12751.109287 11446.269836 9622.204238 8860.610801 7958.317367 2762.379912 16056.296057 15859.356300 15949.893130 14780.923232 13415.458597 11417.845648 13046.003691 13690.628345 10583.758790 11781.656836 8462.784512 3087.211046 4179.200910 16213.643562 15744.658071 16465.090482 18089.485715 12070.145588 12047.203024 11408.588295 10878.190847 8134.827831 7558.042394 8442.068091 6869.130606 8937.314355 16196.781282 16588.128253 18972.872512 11851.163180 12942.999412 12056.670605 12760.424318 7894.337147 8449.297374 10785.189743 4935.009633 11141.191046 5843.068565 16242.625281 15093.277222 13544.022559 15364.180429 15193.446397 11167.913712 8438.487423 5759.928830 6156.607696 4707.580988 5235.039025 8428.493924 5205.923951 16368.778784 15199.895428 12810.393413 16212.068127 16320.241042 11191.005613 13951.807890 13045.696674 21434.185731 9958.856463 7397.961235 5088.324766 4677.397145 16554.114316 16112.522298 14134.836650 12373.304766 16877.134517 13701.608338 13189.865405 9828.320511 4512.052426 5029.925424 4076.967269 7181.637206 7692.425684 16714.377704 16517.448811 14997.231401 14424.350263 11440.654511 12373.352254 13730.977069 9738.711131 8459.078186 7910.485236 6478.339066 8419.868258 7030.327281 16706.255723 17289.008671 18129.768650 14858.961988 13341.917447 16034.450577 9385.359679 5405.096758 6525.560474 9461.145710 6246.179743 5597.621524 9812.783680 16581.953237 18027.144485 22238.404983 16070.228634 10547.532707 6880.971477 10310.996723 10178.183894 8475.199193 9630.166498 8504.549710 9825.736606 10217.738016 16686.800088 16755.143739 18941.555980 14302.405402 17404.150521 14723.597733 12581.889044 11847.644921 11164.926756 6352.991411 10486.925657 10854.909916 5609.067261 16970.769796 15449.022403 13532.012142 11283.497484 10649.884737 12303.422260 10701.326266 8758.306254 5402.143095 8518.947288 6604.353471 9194.501989 5290.399662 17159.421327 16638.203083 13986.872266 12590.580604 17002.700873 13694.905037 10496.050941 8607.239835 6558.392277 16940.204131 9206.962766 8539.650441 5156.419247 17305.246398 17990.297612 16419.740524 16717.173052 16276.628795 13950.613625 12188.241422 9045.436466 16269.676963 9606.019102 5108.325944 6796.721909 5116.454654 17556.111663 19045.150612 19975.149757 14337.790774 15407.847279 12806.358105 10957.926895 13795.350079 10530.935060 8812.735555 8620.630922 17565.775680 6794.165518 17873.444206 20009.299459 21174.609646 16686.840045 10966.708033 7232.864153 12712.682601 17312.573929 13213.988809 12505.592720 9913.743560 6791.354137 5585.199177 18010.374406 19717.333598 19039.525708 15310.600045 15091.232553 12105.709871 18122.736329 10299.883850 9722.109621 5097.383466 8599.296530 8677.062484 5708.006719 18054.968527 19891.795417 18252.484259 10537.688399 14392.176403 10423.769392 11670.702600 11802.929420 4857.639234 16408.477237 13026.848022 8153.516444 9350.759808 17846.482713 18477.440400 15476.327760 11065.636099 12580.297128 15374.276763 15406.379638 10960.988782 6799.388551 9136.747007 11175.573330 2924.547513 11080.826961 17676.479986 18569.504606 15670.580281 16145.871495 12997.945990 9122.168495 9426.333573 10258.225594 9013.546824 12258.543828 8169.346351 19615.460945 6783.126206 17556.792672 17969.399189 15812.341907 12363.628956 13375.998303 12902.050909 9560.983965 10906.495437 9564.945668 12254.354452 6241.302334 8292.863976 3985.821766 17415.922157 17660.202598 17988.240572 14154.982155 15413.277048 10990.507953 13611.953703 16263.713594 14312.319356 16707.660942 16439.348144 10149.442736 3353.805388 17664.010141 18517.404714 18767.670613 13933.389808 15473.105354 12073.711448 12803.922996 9844.906889 12301.331128 8545.706881 20202.453422 10994.415820 7537.611900 18137.589084 18188.222639 15926.168870 15567.449738 12288.266259 8833.579291 12001.555203 13212.870155 14320.742229 9486.290172 7274.075440 8726.215283 7556.098531 18341.189404 17122.768089 13449.514840 13684.615538 18156.460076 6763.348906 16825.884841 8383.618747 15387.520732 4702.079095 12407.611255 5802.021004 7739.433625 18332.471966 19202.922054 21078.513438 15159.099951 14934.190111 15922.160874 12833.974334 13323.943714 15795.569727 12657.777979 13131.756992 15520.191588 7938.028590 18106.131729 18586.401744 19836.688425 18775.540720 14943.977252 10536.162334 15201.363029 10157.516525 11467.281866 12337.909868 9032.805929 16154.951677 6604.339438 17639.496589 14066.917035 10168.778140 16074.514119 18003.300061 14588.807964 16673.914797 12654.551787 19200.072097 14197.124880 10638.190600 5924.073336 6323.584550 16973.549302 15523.800067 14383.913693 11966.748390 15582.010818 14029.910461 13244.386705 10812.836089 13718.902959 11055.783869 9959.262865 10513.418568 9065.992482 16730.430756 20198.032064 22737.639415 16793.979223 13999.082802 14102.565910 10807.004575 10259.689231 13123.081353 14464.769801 16111.970980 8417.357859 6690.798590 17078.685745 19602.633211 23133.640894 14157.466386 13422.852875 12166.451615 14119.904191 13255.604086 13407.045623 16667.366638 8079.412291 9163.246461 5417.913838 17554.516689 17515.045294 20552.546064 18612.354401 15124.749378 19215.094434 13631.557372 16303.990260 17029.406426 15905.026707 10617.014629 8773.187745 6547.836800 18003.812118 17606.357232 19188.612920 17980.703505 8991.241005 11674.343139 14688.178936 10497.962806 10549.042755 11764.226089 9737.846693 9114.241754 5373.496866 18344.379246 17845.736723 18644.219886 12497.214178 14448.205313 15821.283684 18889.393503 9088.978840 15002.387239 16643.255819 11763.133034 10791.454608 5267.572497 18483.611263 17054.277300 16633.625898 14688.115587 10839.470910 14449.352748 12672.392238 16537.578246 17478.620298 13971.283829 7495.658427 9529.380889 10399.307219 18854.751064 18578.785535 17042.133074 18965.216141 11207.505673 14205.485849 15944.679303 16216.106599 11234.487171 7470.471563 9792.105503 6956.845374 5529.065011 19549.731986 21615.511736 19191.267644 17993.796077 13110.920602 12915.937823 9843.140276 17646.294581 15022.487320 16881.908840 10108.105410 7142.893944 9338.597667 19659.963542 22160.568197 18735.326905 16291.784542 16892.353702 13587.852696 12948.393733 14966.188321 15641.603553 11553.829738 10975.611676 6608.460374 7648.148455 19208.986411 22080.341780 20996.993151 18143.588663 15375.678445 14618.881594 16082.781704 16911.873245 12214.373034 13422.988147 18739.933375 8352.409028 4800.256190 19143.801919 22841.578962 22196.996218 14787.977881 19883.060006 10625.261288 13671.928213 19758.670146 9226.323706 15522.396148 11737.711436 9339.510619 5256.753916 19211.248833 23312.183028 24431.938026 15041.769185 10380.144734 17466.607317 20706.028043 9772.400385 14676.952485 15384.752949 7351.588251 8945.867350 5235.428475 18978.691518 20442.274816 20195.969281 17543.629218 17737.471608 15077.107363 12139.285031 15228.037953 12838.202091 16473.309921 12758.645255 13574.026429 6166.437519 18943.665835 22517.184969 26105.649804 13741.876066 18705.239998 13831.463917 13917.712576 14546.548094 12852.477582 19362.653711 9066.792047 19632.532021 3566.172813 18863.789944 22257.187641 25447.866962 14618.271639 13696.919218 9515.699379 24527.929429 14594.908366 17403.524010 16103.585263 10782.658024 6805.497913 8084.839759 18822.665751 19938.681130 20583.386378 15899.096642 14610.434557 17912.047388 13042.019921 14443.894371 22890.167054 15186.085513 13385.024746 17620.354206 4273.818997 18936.429943 18057.996723 15610.100178 15670.955261 20485.087001 18239.192302 16813.459966 16880.302643 14562.029257 12335.363122 16301.949372 6709.762687 1547.553761 19361.809918 18249.860590 14107.340205 14966.005314 12355.247954 14183.185919 16105.912246 16137.395126 20230.057660 10795.339970 7827.732945 15428.169607 9853.854967 19863.491562 19020.582194 15700.473672 15368.044365 12527.487450 17034.171797 12573.714194 18288.019653 15656.443478 19767.549262 17927.055313 10816.424094 4952.773037 20083.540818 20259.345021 17202.090333 13967.083283 16179.104423 15654.590810 19519.916629 15365.394987 13145.433084 16301.374105 14921.806833 7414.748735 6446.617216 19806.175903 20613.081897 18517.485678 14402.286949 19310.897783 17388.560767 16551.325045 12550.364597 12972.764309 15875.708170 13030.280909 16091.048458 10725.750368 18847.064873 19181.554183 18966.288835 18338.557415 17060.816390 16625.226051 19483.976446 15655.700541 17445.990159 10869.952538 12972.154474 12934.796439 3912.007306 17945.114645 15413.999098 13890.886882 12468.354780 21276.497117 17132.557825 19957.860516 13379.472718 14847.754434 23122.892020 10997.626967 4443.697367 7566.761154 17430.842795 16917.420378 17298.074697 17144.845670 11682.808641 15263.523963 16658.940148 13345.652485 8690.280831 16105.202871 7902.994135 5606.033976 9284.535537 17331.629794 18890.132403 19599.827821 14390.221404 16956.892566 17985.331168 15272.256301 21198.663613 17796.557370 6554.865153 16742.346349 17658.147862 17479.121916 17511.582596 22147.797161 25227.250866 13684.533523 14796.220853 19727.109553 14829.293994 11945.228509 21712.252640 13315.022832 16982.593174 15352.713878 6591.441458 17237.709491 21004.869361 23446.408860 13916.758926 15111.360391 19353.317772 17123.344485 17401.370861 14743.872710 18582.437458 14123.952214 15386.668249 18167.904683 16743.014246 16556.779015 12545.698206 12461.781592 15624.373934 15720.915025 17083.302259 12063.787469 14717.597645 16621.900070 18362.402905 14167.130908 13669.148461 16500.685740 16817.867068 15232.078686 15937.983240 15031.149909 15046.541045 20330.799583 17801.253637 14444.514312 13758.543732 17698.505057 19175.775430 17479.276023
</DataArray>
<DataArray type="Float64" Name="Velocity" NumberOfComponents="3" format="ascii">