<VTKFile type="PolyData">
<PolyData>
<Piece NumberOfPoints="2177" NumberOfVerts="2177" NumberOfLines="0" NumberOfStrips="0" NumberOfPolys="0">
<PointData>
<DataArray type="Float64" Name="Pressure" format="ascii">
 18753.775833 18673.914309 18459.024584 18078.108283 17626.378589 17154.425108 16583.960602 15911.892463 15157.116687 14306.885741 13451.200763 12718.458413 12048.202657 11307.482834 10448.786647 9460.486415 8327.291383 7012.151756 5610.385887 4293.220766 3156.497238 2194.464227 1362.580835 642.068094 43.355328 -423.937323 -767.720892 -1012.751775 -1189.517619 -1319.541662 -1413.818684 -1480.050837 -1524.249098 -1550.479612 -1561.371351 -1558.745005 -1544.041523 -1518.547792 -1483.496654 -1440.102110 -1389.563984 -1333.059042 -1271.726847 -1206.654616 -1138.863581 -1069.298610 -998.823219 -928.224791 -858.244769 -789.679219 -723.681649 -662.469770 -610.190218 -571.606782 -548.228068 -538.213699 18995.790136 18949.734389 18584.323983 17684.258498 17012.447851 16814.421520 16352.355706 15554.635247 14653.929640 13745.651628 12988.556340 12380.868297 11602.223228 10614.418325 9639.258795 8717.771210 7780.478308 6331.928910 4651.272996 3322.669249 2438.924633 1796.036382 1192.184149 586.817400 34.575209 -416.402612 -752.950412 -992.092366 -1172.920267 -1312.260763 -1411.138748 -1479.033726 -1523.768739 -1550.177425 -1561.136879 -1558.544632 -1543.865150 -1518.392482 -1483.361561 -1439.986862 -1389.468154 -1332.981966 -1271.667551 -1206.611712 -1138.834904 -1069.279953 -998.804086 -928.174555 -858.068397 -789.082776 -721.795635 -657.539296 -600.609717 -561.123300 -539.466341 -531.073623 19444.906072 19360.221198 18150.631455 16381.374646 15494.575007 16666.156303 16006.287373 14530.806055 12990.740996 11866.156719 12681.022059 12041.849673 10462.581893 8624.770592 8350.053124 7368.236506 7553.256702 4633.703554 2765.627805 1553.608788 1243.887909 1203.537084 960.948101 513.508342 21.067153 -408.871140 -733.066595 -951.793627 -1136.052859 -1302.830571 -1409.090713 -1478.696897 -1523.862274 -1550.368728 -1561.339383 -1558.735715 -1544.038799 -1518.546985 -1483.496411 -1440.102028 -1389.563931 -1333.058934 -1271.726513 -1206.653532 -1138.860050 -1069.287105 -998.785725 -928.102609 -857.846706 -788.380730 -719.482946 -648.095047 -578.514504 -540.943527 -524.346672 -519.081526 -534.605429 -517.112670 -510.206273 -488.465774 -482.105824 -478.680629 -439.984963 -438.458025 -437.078586 -397.795024 -397.375898 -396.895928 -359.210518 -359.116964 -358.934119 -323.676245 -323.678450 -323.591204 -290.948111 -290.978160 -290.921952 -260.874029 -260.911168 -260.865983 -233.321374 -233.359171 -233.318900 -208.158198 -208.194631 -208.157437 -185.249462 -185.283888 -185.249228 -164.457579 -164.489802 -164.457507 -145.644004 -145.673984 -145.643982 -128.670930 -128.698691 -128.670923 -113.402790 -113.428388 -113.402788 -99.707528 -99.731038 -99.707528 -87.457616 -87.479127 -87.457615 -76.530851 -76.550464 -76.530851 -66.810958 -66.828776 -66.810958 -58.188001 -58.204134 -58.188001 -50.558656 -50.573216 -50.558656 -43.826345 -43.839442 -43.826345 -37.901254 -37.912999 -37.901254 -32.700269 -32.710769 -32.700269 -28.146826 -28.156185 -28.146826 -24.170704 -24.179020 -24.170704 -20.707770 -20.715139 -20.707770 -17.699691 -17.706202 -17.699691 -15.093619 -15.099357 -15.093619 -12.841862 -12.846904 -12.841862 -10.901545 -10.905964 -10.901545 -9.234274 -9.238138 -9.234274 -7.805803 -7.809174 -7.805803 -6.585706 -6.588641 -6.585706 -5.547068 -5.549619 -5.547068 -4.666187 -4.668401 -4.666187 -3.922294 -3.924215 -3.922294 -3.297294 -3.298962 -3.297294 -2.775528 -2.776978 -2.775528 -2.343552 -2.344818 -2.343552 -1.989944 -1.991055 -1.989944 -1.705128 -1.706111 -1.705128 -1.481222 -1.482103 -1.481222 -1.311912 -1.312714 -1.311912 -1.192340 -1.193086 -1.192340 -1.119021 -1.119732 -1.119021 -1.089780 -1.090476 -1.089780 -1.103708 -1.104409 -1.103708 -1.161137 -1.161864 -1.161137 -1.263648 -1.264421 -1.263648 -1.414079 -1.414919 -1.414079 -1.616574 -1.617503 -1.616574 -1.876636 -1.877678 -1.876636 -2.201207 -2.202386 -2.201207 -2.598764 -2.600107 -2.598764 -3.079435 -3.080971 -3.079435 -3.655130 -3.656890 -3.655130 -4.339691 -4.341709 -4.339691 -5.149056 -5.151369 -5.149056 -6.101436 -6.104084 -6.101436 -7.217508 -7.220534 -7.217508 -8.520616 -8.524068 -8.520616 -10.036981 -10.040908 -10.036981 -11.795916 -11.800372 -11.795916 -13.830044 -13.835088 -13.830044 -16.175517 -16.181208 -16.175517 -18.872220 -18.878623 -18.872220 -21.963979 -21.971161 -21.963979 -25.498739 -25.506770 -25.498739 -29.528729 -29.537681 -29.528729 -34.110591 -34.120537 -34.110591 -39.305479 -39.316495 -39.305479 -45.179110 -45.191271 -45.179110 -51.801763 -51.815142 -51.801763 -59.248216 -59.262886 -59.248216 -67.597613 -67.613643 -67.597613 -76.933254 -76.950707 -76.933254 -87.342285 -87.361220 -87.342285 -98.915304 -98.935770 -98.915304 -111.745844 -111.767881 -111.745844 -125.929752 -125.953387 -125.929752 -141.564429 -141.589678 -141.564429 -158.747953 -158.774812 -158.747953 -177.578050 -177.606499 -177.578050 -198.150929 -198.180924 -198.150929 -220.559967 -220.591443 -220.559966 -244.894250 -244.927115 -244.894247 -271.236962 -271.271094 -271.236951 -299.663638 -299.698877 -299.663603 -330.240282 -330.276419 -330.240168 -363.021380 -363.058108 -363.021010 -398.047867 -398.084643 -398.046665 -435.345208 -435.380808 -435.341308 -474.922116 -474.953170 -474.909455 -516.771480 -516.787720 -516.730385 -560.878726 -560.847294 -560.745350 -607.255329 -607.067339 -606.822431 -656.051912 -655.334751 -654.647953 -708.152564 -705.405853 -703.577342 -763.914103 -753.712689 -749.487309 -792.354473 -776.059095 -769.047835 12464.608905 11872.909987 12484.264301 13432.081335 10685.569352 10371.839854 8077.319414 8484.757167 7814.336151 5464.741143 4514.863872 4258.557688 3658.233674 2705.785593 1607.247534 1051.535592 661.457627 375.211196 168.125968 13.338231 -111.576073 -222.885846 -330.886385 -441.083578 -555.555853 -674.060801 -794.839158 -915.209985 -1032.045755 -1142.169910 -1242.681318 -1331.193554 -1405.978891 -1466.018165 -1510.969969 -1541.080988 -1557.062224 -1559.954046 -1550.998155 -1531.528469 -1502.886893 -1466.364972 -1423.168912 -1374.403366 -1321.068591 -1264.065454 -1204.202444 -1142.196179 -1078.645639 -1013.916360 -947.781487 -876.745104 -812.242371 -784.240545 -772.262937 -768.078388 12528.564382 12379.307961 12880.392876 13854.033148 11834.984469 9860.895477 9049.992532 8947.742337 7919.117023 6493.716868 5180.557521 4102.413915 3119.717121 2242.934088 1573.115081 1055.738598 663.026889 376.157830 168.757266 13.709206 -111.411039 -222.861221 -330.939862 -441.165827 -555.631540 -674.106058 -794.839159 -915.157433 -1031.939845 -1142.015246 -1242.486534 -1330.969720 -1405.737919 -1465.771438 -1510.727338 -1540.850204 -1556.848754 -1559.761198 -1550.827408 -1531.379904 -1502.759633 -1466.257592 -1423.079799 -1374.331084 -1321.012496 -1264.027295 -1204.191387 -1142.245165 -1078.865262 -1014.680354 -950.324672 -886.933007 -830.978800 -797.882665 -781.725269 -775.734753 12538.701061 12381.793275 12126.055356 11902.510235 11177.052098 10306.384283 9476.006837 8566.247682 7431.957379 6180.982482 4995.551587 3964.807747 3051.563393 2248.738077 1581.301172 1055.706080 660.992146 374.559111 167.750143 13.177361 -111.626562 -222.895887 -330.886021 -441.081952 -555.554777 -674.060265 -794.838924 -915.209891 -1032.045720 -1142.169897 -1242.681314 -1331.193552 -1405.978890 -1466.018165 -1510.969969 -1541.080988 -1557.062225 -1559.954047 -1550.998158 -1531.528480 -1502.886929 -1466.365091 -1423.169299 -1374.404625 -1321.072687 -1264.078774 -1204.245775 -1142.337144 -1079.104113 -1015.410097 -952.591883 -893.459662 -843.402748 -808.764716 -789.376681 -781.567041 19708.717520 19061.717079 16950.878376 15992.119145 14666.484474 16781.477320 16763.542592 15092.511526 14105.535706 11779.265307 13460.631834 11795.968064 8768.635322 6071.651329 6294.863113 5383.855688 7384.934773 1721.023682 -994.077252 -651.466916 635.001026 996.153469 891.030766 492.207319 16.228536 -408.054730 -727.346449 -931.765934 20210.515306 18984.818754 18835.097240 19793.346192 15935.048862 15942.908364 20404.021314 16522.359780 21655.034730 17926.452658 18833.219888 17024.255337 18271.358121 22182.553213 20239.830689 18285.717879 13826.447081 18662.748463 20660.593265 20682.961925 15675.231767 15971.034570 20526.042475 17926.777000 15534.224520 15974.536561 11877.177208 8520.829248 20689.646417 21290.981444 25889.583655 14171.360114 17906.762067 16325.855895 18165.033461 12710.378477 16514.186169 15500.244275 16183.392916 13508.737377 17246.197509 12851.921364 14530.052355 18710.912966 14329.056173 17750.813283 15907.634206 13205.202411 13853.680529 19636.666451 16601.995134 20116.060492 20223.937910 15443.215309 17785.439995 16848.712052 20953.580741 20749.646875 21348.604530 13528.032353 17988.126369 12447.097862 23416.645533 12900.552219 14409.398647 16804.416592 8025.047787 16232.120303 19135.395671 15328.778583 17972.693895 18968.616930 17043.423206 18150.193546 18109.559025 13717.285797 16597.281627 13682.647474 9301.874333 14049.761350 24287.308109 11191.354811 18675.161579 20114.204500 20961.290127 19806.860148 17671.111059 17809.325725 15150.056453 19810.124326 14391.506753 11370.010120 18579.512111 7800.696001 13603.093070 19364.995772 20477.172873 18756.797680 3995.498968 8590.085190 17218.809281 15116.792727 14020.326558 16701.438956 4240.695195 15287.161244 20919.657952 10147.444037 9202.273760 10992.737471 5811.972643 12102.004556 21180.490655 19407.730692 16066.877895 19598.230695 19340.175748 17194.975497 19608.950000 16303.423012 12748.788597 13007.493932 14862.376989 14870.016017 13402.343987 8336.963091 9776.604472 14183.066892 16238.768181 10871.870447 14623.516036 17828.198107 14538.935222 12882.183485 10640.436571 12773.175080 16407.553967 12130.660575 8998.121629 10967.064953 21623.241065 19769.333173 16518.522819 19812.416743 16023.751005 14537.502826 10028.114819 9161.331487 16544.178152 8595.831753 14794.340736 12399.280602 16194.917620 13028.442187 14586.591042 10656.644635 11144.034702 13556.278586 19099.389282 13477.345941 9163.564168 21534.246440 12628.089935 23372.080530 10897.508279 10796.606623 13138.942444 5412.506259 21854.493154 20833.406487 20586.764121 20553.551894 16558.082116 12486.028997 16200.634865 15541.849482 18740.944984 14632.024480 17559.148879 18613.764447 9565.736945 10358.736881 16939.111746 19883.605873 14060.656523 18049.941670 9958.530420 12683.924943 17091.992871 17667.640183 10285.652853 6092.964124 11862.403583 9539.381736 6836.898437 13555.976851 21665.501270 22385.424595 24458.541397 19313.631334 19542.251692 19161.807535 14756.396952 16227.335323 14452.228429 6380.522774 11051.740930 14675.177591 15632.716145 18124.593121 9966.450334 7509.796944 11273.573162 5998.220040 11884.232313 4356.797730 10617.180473 12266.007369 5828.489974 14568.859109 10463.475333 6817.192114 12696.675849 4566.459681 21281.526274 20774.059705 18508.841820 17532.472547 20602.465854 12209.006859 18856.306055 13615.050280 7998.941826 14770.987701 7005.155208 11372.566943 7507.021347 7538.035153 9922.310982 9793.140293 5805.237020 12313.637049 14789.499126 7262.576095 15830.032059 15650.757473 9947.930231 13679.501828 23639.089244 15239.005505 6165.313336 2421.591984 20654.736033 19802.786455 19070.467257 14801.814087 13792.225187 17497.372179 13597.929404 19954.969480 10345.644940 15772.637660 14965.434504 14782.805128 10125.239267 8725.757073 13512.820397 5225.510651 5639.169164 10196.433701 12157.675900 9560.499790 12903.854799 6958.030825 10310.118442 7302.832809 13320.105892 11569.197913 5586.153010 3429.808333 20526.696529 22377.957618 26024.644804 19363.744928 16451.959486 15522.741254 15434.777143 15094.892748 10379.483723 13863.220137 9004.711056 14971.839819 16482.897544 13536.277586 13415.795673 11258.924944 14796.733580 10478.419788 6820.412238 5684.944381 6809.036272 6765.781158 9626.660085 9984.054730 6475.861875 11159.422810 6287.050193 5743.084611 20897.851062 22634.700490 27917.477622 8702.089028 16933.831690 13592.901952 12776.622623 8156.615500 15307.400665 15841.297641 11540.454713 6925.175866 8948.467652 6761.225003 14198.303103 13097.788213 10444.477696 4561.225073 13869.577119 10764.003555 13034.602015 12298.751713 8303.811237 11472.039411 10527.226491 14872.282814 6160.348225 12405.574028 21165.496504 20790.643439 21704.424668 15144.638760 14896.133126 10207.301733 18440.924517 14421.922003 6918.154254 15665.001870 13199.490463 4889.945904 6673.090085 7437.625636 3898.490355 5152.710317 7476.784333 5418.766516 13255.747068 9080.730655 17429.135698 5241.031286 15977.384489 7313.327583 13282.622605 13012.151492 9389.256085 6758.451603 21194.281000 18034.018060 16545.498917 13942.872448 13273.068845 16508.168123 13670.483767 17820.779873 6116.614530 13717.285907 12855.475459 6546.812310 11610.994595 5207.881450 4355.091884 4891.401939 2971.495643 4174.210638 5032.640906 6301.141541 4357.494027 5467.982593 6457.927511 7541.411062 9856.197126 3488.371403 2516.700693 4733.753769 21125.610230 18238.264034 15313.320997 18227.365407 13864.253062 15810.396528 12903.521633 16546.826801 12276.166140 10635.383393 12932.181660 7665.320677 3094.823120 20863.129492 20405.201386 17466.791383 16577.950983 17869.877464 15108.625346 14598.685984 7983.525456 13952.358779 7584.293661 7203.588944 7862.724845 4072.183898 20687.490141 22873.457434 23540.669533 13755.722065 11582.280844 15273.559357 10950.902274 13410.888971 4775.593454 7757.500720 7804.968352 5163.469971 7357.337592 20444.692026 21361.765885 19210.169612 14679.229160 15068.811143 9547.523146 14290.689041 10481.293626 9209.938229 9325.100800 9968.923654 11443.577829 5202.513999 20324.983947 20735.413811 19014.330308 19010.270979 11658.139566 9496.028147 9013.216880 15384.864893 11954.315896 13539.248576 7048.725927 4718.086449 3740.681250 20403.536737 20399.145557 20295.617699 18010.842680 16704.605261 15967.672213 12343.395241 14051.879797 11899.713870 6871.969091 9036.286591 5844.499394 5092.194329 20751.654303 20829.162652 21173.766677 13754.239059 14031.294523 12153.052346 11079.952836 8344.326582 5441.227751 10338.208773 7103.890332 9872.542774 5012.458194 20852.941756 20871.166938 20419.665809 16571.062634 14391.401550 12672.023140 11184.569211 8756.549594 14486.048310 7821.463677 8539.230584 6114.801353 3846.258963 20609.927980 18771.320659 17960.268563 14363.829209 15296.457128 16359.797313 8112.812494 6745.275081 10544.063896 7521.594997 7521.706210 5042.281942 5474.766917 20317.341686 18832.646649 17015.549931 9618.072594 16322.944737 16050.495179 10236.213180 9290.275398 9367.591200 8428.740422 8407.948034 4533.493353 2432.846129 19956.045028 19901.416905 20431.351234 15050.356330 14472.314507 15155.087374 14978.406618 2290.985648 4879.195969 7775.828607 11679.159792 13044.882540 7025.060238 19504.128092 20038.580371 21248.225060 15306.074471 10879.408931 12110.523236 3511.303971 8342.235079 8153.531372 16875.167171 4144.758713 9602.430260 5874.991706 19433.104109 20437.902169 23070.501082 13260.160759 14055.212377 13504.653991 11041.146113 9250.723371 8208.293574 10475.221976 11252.387882 4817.205570 3794.223801 19638.132280 21274.231268 21586.836056 13966.644829 11145.047394 16049.744374 9609.041476 5414.095639 11593.480832 12974.470070 8891.580766 7096.542104 6332.955867 19698.273986 19454.760838 17502.648678 11962.854230 10622.331183 15454.194080 8102.668966 12949.942482 5342.128272 7771.245522 5265.839766 7758.001153 6181.661525 19565.870777 17763.312001 15871.444799 14005.656369 9474.207337 13586.749179 15040.713207 9655.650631 10666.150991 8827.463296 7745.412605 9650.420335 3294.406387 19485.890899 17885.196951 16452.651027 15799.302287 9057.719679 9967.930018 7879.758868 11339.380799 7755.016690 13250.783853 7994.562087 6075.432694 3622.995875 19464.670360 18960.946326 15470.633617 16658.631675 13453.414643 14335.077691 6185.035024 14714.095544 9093.323211 8260.533655 11026.795487 6501.335865 9283.694668 19078.959632 19235.517440 16480.068024 16391.003734 13459.802823 11801.220948 14252.340854 10108.107951 7676.575135 9686.539093 8284.381537 6146.940003 5131.266830 18580.464552 18069.433444 16972.633643 14575.138082 17637.184166 8218.477988 7686.239411 9578.178644 6722.959208 12834.965280 8049.053778 6203.344857 3967.484655 18307.147337 18610.376744 18839.299203 17985.252963 15119.562921 9618.852759 11643.684455 7325.676233 9159.217699 5124.325483 7390.095524 5361.650322 4741.515868 17970.359799 18104.179752 19988.860862 20845.061918 14739.129497 15963.018630 10814.765484 15646.151383 7637.680393 8008.682313 8196.460691 6168.190927 4865.742774 17670.264469 17380.905123 19275.876724 13150.375622 14069.737308 14883.516090 17918.589581 9996.363765 8954.868824 10801.433219 5772.876129 5276.762079 3797.821565 17722.007220 17512.423436 15234.326123 12895.307270 15872.679110 14360.445141 11307.962505 8978.068548 11886.835809 11574.056053 5760.334661 5734.201503 4577.700481 17991.801146 19467.842361 16961.331710 13939.474372 17175.935487 15108.014687 13589.481302 14163.153943 12505.799802 8854.070513 4658.938370 6558.524932 5089.076861 18231.673093 19399.623924 18393.703652 16936.116363 12678.944725 5102.607029 10242.073983 14798.177582 9140.970423 3063.792377 6755.401088 6781.123921 8646.622677 18330.423287 18634.307739 16998.297559 9176.042235 15526.035398 13472.432790 8465.306518 9401.528098 9117.749593 4401.726526 4224.525292 3944.118891 6610.089175 18250.579333 19346.765558 17997.074697 15828.672335 10856.260325 9446.448045 7342.113089 7791.202224 8635.045867 7385.501160 4397.090938 5717.979169 2537.418954 17785.446691 19025.263155 17402.177567 15251.246099 12061.392324 15186.399928 8799.652140 12341.983599 6666.095225 6879.291722 6193.837884 6904.959272 2103.292260 17271.040542 17081.208276 14906.247024 17701.293500 14518.509570 10822.981512 12046.241714 12923.228744 11844.333811 9183.253894 8708.002336 5215.936368 4332.264201 17131.109460 15015.666020 11754.773612 7944.093400 7467.774430 11186.239825 11006.355098 8032.025186 6571.266727 3929.162776 6405.618600 8064.983856 9022.483628 17098.036878 16848.416692 15297.674060 13795.633537 16285.882583 7996.045236 15315.550338 9003.691637 6576.152943 9097.071352 7187.951749 9417.006603 4610.606143 16973.886563 18979.414414 21104.203674 14799.071030 13359.539434 9993.652330 7203.176584 5471.912675 4321.130572 6218.027562 6491.970365 7492.911368 4113.361238 16814.554997 18167.477396 19736.169564 15629.343220 13052.534012 10220.600048 8828.303863 9855.145781 10064.215488 8760.525634 5184.207808 3804.842481 4541.264579 16780.015435 17016.294404 15829.318485 12509.490625 10679.929317 12922.946797 9604.054258 12470.942809 7585.352019 5739.181908 5542.739940 4318.430612 3528.304285 16882.310851 18538.641657 17007.818249 13151.659631 8694.503300 10197.017831 17324.736728 7704.740398 11198.124519 9570.896075 5066.986676 8525.326028 5368.677404 16779.066622 18278.702713 17117.482911 14762.505754 16593.678444 12476.581343 6398.939764 5731.347567 6234.031834 8764.911860 4265.296995 4350.876376 2941.019142 16562.163296 17124.769762 18635.994346 11394.321264 11017.419366 8250.102987 12336.702030 5510.736382 7512.543214 7450.609330 7453.906117 8192.068413 9093.714270 16553.624087 16543.619926 18345.797432 15266.644589 14340.323046 14346.712965 9644.860917 14685.865655 13087.515319 3697.974471 6714.197079 6838.817604 4040.121193 16632.502409 17024.517335 16716.844567 11337.153367 13568.243770 15500.065272 12495.784090 8087.750258 5944.354950 5327.742318 6934.541659 8389.561157 7068.567543 16675.063782 17865.846074 17022.512628 13158.041144 12104.027850 12652.429135 9107.920984 9767.516821 5786.511967 13541.753239 6992.872660 9874.542835 6555.453507 16609.498901 15364.929345 11902.035598 15556.671482 14228.139396 11651.719962 12912.248250 5913.535264 10334.704551 6521.815633 2056.973518 2976.066641 5009.951590 16196.948681 13541.669366 10332.413885 16117.675328 13450.686092 14651.793804 10903.442852 13925.942975 8943.780024 5784.561549 9717.827750 10020.047425 2667.163347 15540.737028 16389.615735 19699.524067 14739.432651 9455.095816 7234.037783 12487.063106 9902.591405 9731.189945 9244.172350 8568.008942 4990.167334 4722.630517 15175.257765 17382.477732 21712.237587 17564.862598 15112.997501 13421.409796 7539.827797 9126.431945 10748.856948 3170.562893 7028.346400 6851.867264 4395.624373 15401.949215 15288.571688 16296.698749 11900.700515 14823.779830 14142.273643 6582.110367 9291.476972 3718.182007 10096.812330 12901.471090 4394.795724 5133.879201 15747.765495 15832.736329 16266.012631 9918.078698 13523.322587 9225.564530 14500.251796 9888.596226 6637.057104 6342.599665 8602.591972 5343.319151 6500.527231 15722.362550 17419.232640 20144.802327 12861.152080 9825.989316 12966.033039 9966.166878 6083.869139 9763.812210 8657.124520 7873.645709 10241.904375 5289.870576 15450.068405 15744.372639 15966.962597 12990.927790 12440.929925 13330.224840 6980.566568 10677.722019 7963.067712 7624.722216 7142.199036 5638.256057 4636.169755 15332.891978 16739.615666 18335.942068 11472.529661 10977.582726 11800.969850 9152.285910 10498.555677 11149.791645 8352.585317 7310.636669 5930.392848 3512.249115 15526.188470 17608.939191 19974.555349 17506.921357 4702.894498 11065.669608 4390.156792 7987.752336 9583.833401 6638.705123 9741.554963 7893.809208 4501.235794 15796.327299 17926.807029 18384.181036 13813.163679 13702.212643 8522.568550 9724.560851 9813.591473 9019.544502 6070.432558 6724.749578 4969.479129 5604.930782 15612.711449 18406.827503 18570.143145 12098.257201 10529.051645 6451.013353 7306.794945 7751.202639 11126.970043 4803.637662 6888.182537 8035.131297 3429.398044 15341.013247 16896.635546 17664.624207 16107.627548 9982.124566 10240.690946 7975.673979 9293.470570 11176.681459 8887.874679 8060.798496 9173.609597 2863.611271 15417.247499 16304.758598 16430.183135 15055.515218 9639.261837 6646.736107 11830.132801 8417.185585 9397.942126 10275.744823 10516.193935 12480.907756 4649.800225 15520.740079 15668.768390 14134.171967 16755.507993 10351.396496 9675.147684 15937.565107 7875.605080 8058.490749 9128.684312 8344.332953 6249.371087 4906.164313 15445.980638 15270.536341 14037.535106 13836.358913 8787.359633 8661.755820 8807.384007 6360.453201 12276.322029 8536.279983 6290.694032 7740.634470 4922.858804 15327.917044 14508.713247 11381.797118 13586.459205 12515.406557 9455.866954 12530.882065 8664.258175 13870.950507 10301.809478 8368.543951 8296.302163 3182.991571 15194.543879 14679.265663 13333.459135 14656.007997 10108.108272 10020.979646 11311.475768 8031.996008 8920.330649 9962.816003 7045.925915 5049.789848 3120.887954 15019.498289 14955.951651 15499.437298 8327.543242 14269.722015 10854.995030 10906.504965 9470.124932 7322.495288 10626.635487 7154.889785 9699.448588 2327.560133 14932.108777 15662.552889 15860.104228 13790.007334 8279.428185 9742.139655 12523.418801 6349.489889 7977.650599 7048.143107 6861.855920 9634.934940 3461.570907 14807.562707 14157.125332 13637.850160 10224.902672 12563.273762 12487.236138 11836.635172 5224.164028 12934.349978 10415.227792 9290.332414 6545.839964 4145.013254 14382.934124 13842.194836 15682.247884 16249.177428 8819.781412 12370.340676 9918.941521 8919.744695 12995.987650 11002.932869 5733.391424 756.437222 5821.410057 13967.723716 12804.915985 16343.148319 13376.027643 9358.343600 12095.777080 9641.560621 12750.151822 7611.892841 8541.790148 12667.032404 4055.062670 6204.494283 14005.195889 11772.332740 11448.020747 14788.115002 11610.421050 10269.080637 8777.619717 9193.752333 11275.487071 12335.830963 7477.394911 2362.245730 7686.119782 14391.955055 14008.606394 11803.663868 10357.378275 8288.883073 8963.190142 12796.898824 10741.950089 8368.338651 8692.325630 7951.668021 5829.402569 6229.034064 14646.947978 15883.819023 14264.351417 11113.891912 10885.160990 15506.092214 8858.504369 13305.414296 5444.190700 8791.929301 14838.943694 4771.065058 3481.608510 14588.980707 16297.753460 15449.872693 12327.101005 13400.544199 10278.474300 14619.327195 11193.662780 6095.848415 10389.263431 8737.215362 6571.296824 3916.566901 14486.585234 15425.403434 15715.603677 13906.897589 6680.134569 11536.923204 13320.644175 7277.750205 9822.003008 9785.130105 4850.628447 6006.254319 3115.913879 14497.949118 15651.944578 15387.147302 15887.079377 13529.070778 12312.925365 13141.679979 13094.720978 10503.304856 9803.418487 8037.576391 8333.328463 2009.640343 14551.951060 15898.512765 13690.844386 10323.131678 8783.147336 9894.634644 13739.983519 13040.443274 10643.877854 13687.698701 4385.511392 12792.744166 3651.388027 14507.241845 15813.483538 14196.371199 14684.376725 11542.350159 7893.519855 12296.633160 11566.200037 12405.510032 9866.297258 5238.093018 5078.662841 6840.157858 14360.402459 15017.419418 14195.225581 9777.387770 12109.039861 15535.936710 10751.780295 10090.878896 11446.344232 11076.931582 8952.019823 13972.141778 4604.223005 14273.310571 15011.702804 16573.569514 12001.733016 15349.675864 7174.435011 11354.864505 9820.439221 9528.023220 7314.989764 10366.762500 3246.615714 3323.143799 14138.558319 15301.503149 18469.962882 10889.479163 14120.833793 8383.860262 13234.089257 13013.633948 13176.745491 4699.420822 4132.750275 7883.182641 9095.865982 14068.678161 13660.419992 14668.958139 11921.622735 12628.227499 11351.665773 13046.560217 9607.881430 8350.035803 20299.944040 9044.023806 4418.927861 5201.790465 13945.627217 14336.092915 14758.427566 11426.251779 12240.862420 13593.159996 15433.397820 7567.868618 11437.978240 14526.324750 10976.830562 6769.668597 4257.235960 13613.412439 15280.503576 16763.376763 7032.023394 11709.161793 8668.008497 10777.870362 7382.647646 8196.498676 11465.919853 9319.271530 10149.137584 6548.982145 13456.009310 14118.841651 14966.475733 15893.758994 11740.024541 12453.787447 11612.865396 10928.274642 12127.007770 8719.760640 8242.527886 5871.571865 2578.004894 13475.597701 14633.126571 14882.484821 10567.332374 10902.316532 16803.935134 12711.701224 9105.447587 8279.198949 7646.783465 10892.745540 4411.989128 4320.584926 13522.879739 15612.974695 15041.809753 10652.535168 13652.313547 10111.271506 11187.600884 7687.574845 5308.698922 8482.162773 5109.133941 3894.500621 7115.704099 13293.491040 13578.166964 11575.662692 12130.528235 12532.175326 8501.637922 7042.436645 14239.919232 11902.941819 5829.255709 11483.945959 10002.159707 11325.506039 12529.647199 10304.532840 10064.586662 11030.069730 12654.855631 11106.358903 15073.890673 14114.507628 10397.379533 8574.352645 12148.203244 10884.321043 4495.059158 11991.682629 8895.018070 11881.358304 10302.123316 10741.796004 15313.489450 12064.819885 14070.038305 9084.242897 14780.615405 13499.078242 9052.063606 7229.930293 12212.013763 10381.848444 11335.941507 12950.906917 14119.512638 12026.763140 7967.271868 11668.872393 10065.616669 15524.679403 11996.258198 10580.272402 12754.654707 12464.608905 11872.909987 12484.264301 10228.931664 12958.389259 8149.086269 14200.725673 9585.393780 15461.452562 12051.687080 11392.944363 12670.113870 12672.335047
</DataArray>
<DataArray type="Float64" Name="Velocity" NumberOfComponents="3" format="ascii">