<VTKFile type="PolyData">
<PolyData>
<Piece NumberOfPoints="2177" NumberOfVerts="2177" NumberOfLines="0" NumberOfStrips="0" NumberOfPolys="0">
<PointData>
<DataArray type="Float64" Name="Pressure" format="ascii">
 14141.350573 13948.509797 13556.999925 12981.736875 12229.303499 11332.009693 10301.828419 9179.633490 8038.088691 6933.293008 5879.396361 4881.219047 3965.671244 3147.213343 2403.035758 1727.183630 1138.253432 645.146633 238.278310 -98.196400 -378.333147 -612.925856 -810.214110 -976.671918 -1117.510421 -1237.108968 -1339.648033 -1429.786489 -1511.442790 -1584.190359 -1644.255216 -1688.960632 -1717.450199 -1729.870384 -1726.908119 -1709.599795 -1679.236350 -1637.289912 -1585.343677 -1525.024611 -1457.942696 -1385.640166 -1309.552703 -1230.983079 -1151.086569 -1070.866942 -991.182439 -912.764305 -836.261086 -762.353882 -692.076847 -627.548091 -572.853456 -532.689417 -508.415458 -498.015748 14229.560790 14058.113950 13783.442957 13332.173867 12564.461480 11711.178093 10711.106020 9487.380558 8196.241493 7068.309465 6138.811024 5201.881062 4223.289704 3342.520839 2535.541531 1791.258387 1163.028495 654.894632 242.848296 -95.370242 -376.191574 -611.139517 -808.625942 -975.095400 -1115.583260 -1234.066473 -1334.126048 -1420.830625 -1503.545315 -1580.480434 -1642.755927 -1688.295170 -1717.062592 -1729.580504 -1726.662119 -1709.383460 -1679.047023 -1637.127687 -1585.208708 -1524.916391 -1457.859975 -1385.581063 -1309.514861 -1230.963727 -1151.082271 -1070.872379 -991.186111 -912.734398 -836.100219 -761.761591 -690.164420 -622.528342 -563.116881 -522.121825 -499.669071 -490.938966 14365.277263 14297.586359 14450.627951 13348.480335 12065.295272 12131.699626 11657.368539 10323.089073 8479.535370 7097.913180 6791.252127 5927.413384 4644.283270 3760.156484 2834.246305 1910.978768 1197.589016 666.551540 247.853313 -92.434921 -374.012953 -609.327252 -807.001638 -973.446480 -1113.471542 -1230.439114 -1326.222230 -1402.977449 -1485.604482 -1575.529663 -1641.634717 -1688.154994 -1717.202836 -1729.794336 -1726.884718 -1709.592587 -1679.234128 -1637.289226 -1585.343463 -1525.024535 -1457.942644 -1385.640056 -1309.552364 -1230.981979 -1151.082983 -1070.855242 -991.144272 -912.639799 -835.855034 -761.027980 -687.785676 -612.834088 -540.562760 -501.756163 -484.594787 -479.066535 -495.587401 -477.571068 -470.379579 -449.370533 -442.841763 -439.277450 -401.434323 -399.866286 -398.439237 -360.206619 -359.778248 -359.280986 -322.873933 -322.779731 -322.589654 -288.806353 -288.809867 -288.718973 -257.703463 -257.734917 -257.676610 -229.366730 -229.404887 -229.358479 -203.624024 -203.662369 -203.621489 -180.309601 -180.346141 -180.308822 -159.259646 -159.293796 -159.259407 -140.312311 -140.343937 -140.312238 -123.308887 -123.338007 -123.308865 -108.095105 -108.121797 -108.095099 -94.522282 -94.546650 -94.522280 -82.448232 -82.470394 -82.448231 -71.737954 -71.758038 -71.737953 -62.264104 -62.282241 -62.264104 -53.907286 -53.923609 -53.907286 -46.556175 -46.570817 -46.556175 -40.107518 -40.120609 -40.107518 -34.466013 -34.477680 -34.466013 -29.544107 -29.554473 -29.544107 -25.261719 -25.270899 -25.261719 -21.545910 -21.554016 -21.545910 -18.330520 -18.337656 -18.330520 -15.555773 -15.562036 -15.555773 -13.167869 -13.173349 -13.167869 -11.118569 -11.123350 -11.118569 -9.364785 -9.368945 -9.364785 -7.868171 -7.871781 -7.868171 -6.594733 -6.597856 -6.594733 -5.514446 -5.517141 -5.514446 -4.600898 -4.603219 -4.600898 -3.830950 -3.832944 -3.830950 -3.184420 -3.186131 -3.184420 -2.643793 -2.645258 -2.643793 -2.193946 -2.195202 -2.193946 -1.821913 -1.822990 -1.821913 -1.516656 -1.517583 -1.516656 -1.268877 -1.269679 -1.268877 -1.070841 -1.071541 -1.070841 -0.916232 -0.916851 -0.916232 -0.800025 -0.800582 -0.800025 -0.718384 -0.718896 -0.718384 -0.668581 -0.669066 -0.668581 -0.648937 -0.649412 -0.648937 -0.658786 -0.659266 -0.658786 -0.698450 -0.698951 -0.698450 -0.769249 -0.769789 -0.769249 -0.873522 -0.874116 -0.873522 -1.014664 -1.015331 -1.014664 -1.197195 -1.197955 -1.197195 -1.426840 -1.427714 -1.426840 -1.710628 -1.711638 -1.710628 -2.057013 -2.058185 -2.057013 -2.476015 -2.477378 -2.476015 -2.979380 -2.980964 -2.979380 -3.580752 -3.582590 -3.580752 -4.295869 -4.297999 -4.295869 -5.142776 -5.145239 -5.142776 -6.142047 -6.144889 -6.142047 -7.317029 -7.320298 -7.317029 -8.694089 -8.697839 -8.694089 -10.302876 -10.307164 -10.302876 -12.176586 -12.181475 -12.176586 -14.352230 -14.357786 -14.352230 -16.870899 -16.877192 -16.870899 -19.778022 -19.785127 -19.778022 -23.123606 -23.131602 -23.123606 -26.962465 -26.971434 -26.962465 -31.354410 -31.364434 -31.354410 -36.364406 -36.375574 -36.364406 -42.062691 -42.075089 -42.062691 -48.524828 -48.538543 -48.524828 -55.831695 -55.846814 -55.831695 -64.069404 -64.086010 -64.069404 -73.329120 -73.347293 -73.329120 -83.706788 -83.726601 -83.706788 -95.302749 -95.324267 -95.302749 -108.221221 -108.244500 -108.221221 -122.569664 -122.594746 -122.569664 -138.457982 -138.484894 -138.457982 -155.997584 -156.026337 -155.997583 -175.300280 -175.330865 -175.300280 -196.477012 -196.509395 -196.477011 -219.636408 -219.670528 -219.636405 -244.883172 -244.918939 -244.883160 -272.316296 -272.353583 -272.316258 -302.027113 -302.065736 -302.026990 -334.097204 -334.136877 -334.096804 -368.596215 -368.636399 -368.594918 -405.579763 -405.619175 -405.575552 -445.087951 -445.122995 -445.074278 -487.146222 -487.165842 -487.101832 -531.774138 -531.742872 -531.630041 -579.021231 -578.821522 -578.553450 -629.088874 -628.318604 -627.571511 -682.964916 -680.011172 -678.019148 -741.170702 -730.189938 -725.575523 -771.136252 -753.516776 -745.894707 14712.276189 14360.568040 14414.419860 15766.183907 13994.859742 11483.666076 10501.198047 11439.262029 10351.935523 5184.395454 4617.833348 4413.946800 1164.662856 -2230.041123 -1693.197322 -723.557186 -293.398856 -141.100147 -72.369636 -12.238231 27.431876 18.159978 -53.881482 -185.674741 -363.752062 -570.154009 -786.436538 -996.241860 -1186.886709 -1350.101248 -1481.964890 -1582.191367 -1653.043234 -1698.189434 -1721.747150 -1727.625712 -1719.177211 -1699.088888 -1669.429230 -1631.768215 -1587.314968 -1537.040183 -1481.769690 -1422.247692 -1359.174229 -1293.223188 -1225.045542 -1155.257164 -1084.395729 -1012.781492 -940.119058 -862.598765 -792.636212 -762.368838 -749.401346 -744.818473 14758.829510 14216.274122 13540.279231 13820.303623 13411.572914 12594.369909 10744.014564 9529.456057 8888.740893 6361.041931 4785.618449 4082.545095 2338.839458 397.849923 -232.359115 -213.838941 -113.391298 -78.525309 -47.572731 -0.790250 32.952731 20.652858 -52.909994 -185.371081 -363.648523 -570.017152 -786.174225 -995.845727 -1186.393464 -1349.564505 -1481.435554 -1581.706612 -1652.623214 -1697.839416 -1721.462223 -1727.395761 -1718.990810 -1698.935710 -1669.301136 -1631.659430 -1587.221760 -1536.960354 -1481.702116 -1422.192049 -1359.131204 -1293.195934 -1225.044950 -1155.319419 -1084.640282 -1013.610704 -942.861636 -873.576120 -812.716739 -776.824921 -759.302770 -752.773252 14899.412694 14423.030954 13569.731386 12946.381083 12354.862240 11464.105345 10331.049731 9386.584447 8435.241697 7152.390109 5788.140921 4549.996049 3092.176815 1591.022477 642.576415 229.643980 56.520311 -18.614906 -24.042950 11.096623 40.171538 25.301029 -49.926977 -183.525009 -362.603389 -569.550298 -786.124805 -996.084109 -1186.808719 -1350.063697 -1481.947328 -1582.183402 -1653.039734 -1698.187945 -1721.746536 -1727.625467 -1719.177116 -1699.088854 -1669.429220 -1631.768222 -1587.315006 -1537.040310 -1481.770105 -1422.249042 -1359.178624 -1293.237490 -1225.092083 -1155.408627 -1084.888526 -1014.387629 -945.292842 -880.589575 -826.036942 -788.386252 -767.331699 -758.837828 14447.983498 14643.481569 15303.291653 12443.457399 10081.963702 11539.271904 12048.866695 10861.485124 8703.490305 7023.209474 7431.695196 6539.148752 4687.053738 4120.084545 3305.713689 1959.799928 1207.275087 668.660700 248.363559 -92.294942 -373.947265 -609.266644 -806.919771 -973.301530 -1113.153881 -1229.633062 -1323.623915 -1393.771416 14759.608818 15541.318533 17298.239598 16804.009547 15188.478416 11240.974600 18006.305037 14771.336013 12777.905589 16342.826039 14791.247414 14666.739457 15069.482076 15713.664390 15243.776455 17519.633901 8775.520550 15512.920502 16724.220407 16647.241683 17158.302649 15190.611930 13295.172017 15754.132160 9201.514769 11591.476198 7175.808266 5315.775745 15350.345035 16210.989704 17538.422614 10766.889741 12684.028688 15139.507285 13927.664204 17669.782132 13467.512592 11971.923781 11509.089960 12728.340024 17081.254847 11482.473083 10519.940603 15737.533288 12771.256262 10370.305020 15541.997445 10731.851656 14485.987053 17159.889136 11664.417189 13230.894610 13633.308006 10959.734697 12348.370103 13053.479614 15844.266937 16990.784950 16520.100682 12762.324551 17697.050508 11155.819023 13555.115784 16040.010763 17904.119974 11741.754905 4814.926788 9368.095958 16311.220892 11832.428691 11340.248500 14778.277975 12065.942904 12552.918438 13857.390113 10430.767144 13690.112742 9878.335945 7503.696789 10595.770274 16327.720614 8577.949837 16941.898079 8971.871647 16102.692914 17138.086066 16654.040078 16403.174982 9781.504720 17189.973390 10238.631454 5039.672360 18121.007015 7690.457302 9928.252984 15117.753751 10112.675021 9220.790264 5560.753250 8852.172694 17132.526003 9090.041985 12353.266990 10079.113462 3283.216354 13822.832064 13088.840294 7662.633471 4997.206229 8228.458026 1704.454734 8140.992584 16217.613883 16404.746379 16544.339360 17389.718199 13193.895125 16316.851196 18406.661157 10984.692899 13542.605736 13051.230992 10715.123944 13019.089891 14837.373468 8019.366491 8638.790535 16199.065270 10890.601232 8518.668037 14355.124516 11031.191255 12084.681836 13187.746756 9800.906002 10902.523851 12006.862839 8393.995180 6225.388144 7980.912848 16199.752259 16116.790856 16781.264503 15199.156442 13180.032279 15812.745850 5960.363968 6897.435598 14121.120697 8868.048275 12592.922092 12047.218272 14629.475562 13186.340455 14246.409379 7057.045084 11979.972168 13927.729745 9587.540840 9678.630850 4787.832750 12821.531017 11225.349516 11331.120766 7504.873000 10922.521455 6545.587236 3434.687265 16208.054943 14249.888448 13573.160785 14648.340338 13887.870668 13489.520662 14597.143586 14262.150409 11637.175126 13409.646658 13508.606509 15573.220549 9818.441783 7329.548447 15219.594772 14201.036266 9264.803191 13944.282318 8464.859620 9732.326502 14024.867399 10176.534038 4379.873705 5932.555387 9081.818115 4067.609685 3736.594055 9646.644429 16249.814992 14942.855355 13898.839124 14148.048948 19328.418615 14486.478859 13602.772238 13118.442982 10438.022478 6186.949087 7005.774244 11956.069455 11126.256553 15543.033049 9724.924270 5356.403464 10715.074398 2738.518321 9662.360327 3804.090033 8605.562826 9798.912081 4901.379325 12182.441036 5200.840992 4056.822428 8532.517707 4465.839551 16229.412777 15672.922949 15306.625649 19329.347698 19763.874592 12288.822304 14584.575627 14411.509171 6579.347400 12947.696548 4350.237165 8273.378841 3436.070298 5958.224296 6007.742181 8863.046709 7645.609901 8507.329212 11055.831764 7036.276903 11656.188579 11324.761969 5322.696287 9431.361647 11408.516129 11879.241972 5823.677211 3844.067191 16131.442531 13667.888757 11937.204464 17689.518767 12410.215742 13362.591477 13253.934895 14638.855544 9716.900819 15340.210882 11181.313775 12816.955918 7783.580196 8721.537870 13910.762078 6171.692200 4956.111140 6967.329584 14506.093614 8480.237323 10403.327429 5246.235247 2920.448441 6882.042090 11344.563195 7156.552023 6441.985990 3793.781494 16270.959755 13884.705901 11752.309777 18882.963388 15945.403490 14286.047485 16122.383482 14660.008868 9534.120801 11395.518350 7364.279890 12253.151621 13383.035885 10371.821399 10070.478913 12851.683204 12188.075107 8744.122002 5431.888484 5396.018473 5335.425328 5113.733285 8669.553939 8219.942393 3098.317728 11988.875042 4721.400057 3307.219495 16746.220110 16213.539831 14558.237223 9244.528345 15879.571044 11851.837340 14207.466730 6752.332266 13104.400940 12911.081421 12060.575781 3226.697054 7715.709966 5655.186246 11966.599054 13555.401781 8378.896362 4507.771348 10473.956197 11168.397579 11348.231387 9048.825425 7888.055824 10080.862218 9418.168496 12923.749627 5841.840792 8416.716839 17102.298733 16664.848973 14128.321397 13865.684720 14903.457019 7634.319171 18469.140078 14753.490361 5693.070008 14651.349398 13354.320585 5546.910110 6014.885356 5571.767995 4783.212779 6222.242138 5332.901743 2921.214567 12656.361330 5805.048705 15408.751304 6682.239813 12010.128087 6464.798750 8154.433094 10011.438205 2555.460367 4865.765030 17146.691873 16901.949540 13433.071482 13503.232044 14887.220487 16530.174951 12337.681099 14563.491918 5869.940668 15280.094284 13076.147384 5340.302100 10048.461964 3916.610286 6436.391553 4571.025977 5449.895015 4484.116877 5037.308264 5895.854037 5831.323707 3819.978650 3560.120179 4179.965281 4863.089608 4745.949071 4081.421540 3706.127159 16960.353674 18311.221736 16569.092913 18257.791793 15588.361155 18644.240371 14217.173853 14337.157741 12113.670417 10363.886374 11117.521180 9147.922501 5758.298055 16718.132684 18235.142140 19057.404818 15416.550430 19719.429172 15513.166064 16530.296993 9824.746135 13231.596284 9323.221156 4794.594677 6524.802648 4439.896969 16751.375621 18583.009003 20872.482231 11545.283629 13353.619057 17132.584300 12235.260702 11384.414416 5096.027626 9202.507306 5254.242849 5734.249397 3569.791818 17164.050509 18572.162201 20529.659464 12890.801646 13913.348468 11321.444130 12172.934613 9240.397453 6033.264395 7884.101705 8018.026208 10880.157172 5338.837238 17644.915389 17188.110635 16408.101190 17145.395413 9457.187230 7617.922865 11254.656451 13733.852116 11702.525220 9220.117940 4523.282998 6279.450629 7110.667452 17988.652747 17956.677284 18183.561660 16528.619473 17078.503551 12073.113699 9873.076213 12662.225944 10283.127761 5502.092212 6713.738599 6757.032549 5347.532957 18044.219656 17897.386139 18611.744666 15289.944472 19504.154318 12584.444138 11347.878131 7409.304288 5641.239506 12651.841324 5488.143712 8387.128647 3170.173789 17998.213474 16927.302259 15547.530930 18425.008626 15116.115366 15003.878075 8580.272378 4344.065740 11503.425501 6898.211549 8776.511707 5188.127218 2076.382589 17975.576377 17040.049042 16723.651774 13883.938359 13274.805335 14792.317916 9168.259808 10906.382626 12480.891774 8198.337624 8467.542812 6673.307617 5292.185984 17916.638449 17957.626136 18935.405647 11142.047002 15401.143801 15225.114571 10127.445491 11610.194883 5934.177814 7936.622729 10994.314646 5645.720546 7345.548792 17871.411354 18507.773783 20132.665671 17104.352442 14541.521399 14522.792818 15152.868934 8940.616220 5157.005010 8343.591798 13735.282637 12151.147370 8974.296264 17914.130371 18526.314714 19575.023564 13952.948255 11584.283361 13299.157122 8637.187123 9276.908790 9031.191180 13849.364382 7994.071551 9389.719689 4738.762528 17912.782526 18125.342191 20176.715735 16373.628941 15744.899013 15685.138741 11506.857004 13356.732419 8461.187147 8191.953336 15607.421122 6083.736200 6483.275783 17988.552779 18076.184667 20116.349674 15780.488411 8692.594563 15407.063663 8556.254834 6812.834965 14040.732427 12647.170090 7150.932485 6787.971062 6044.905642 18106.673502 17096.600882 18020.854023 11583.554602 12923.519323 15595.870443 9235.270142 13992.878947 6983.533519 8984.483063 7330.666223 11250.295742 6587.734825 18419.195675 18786.178128 19346.162975 16491.079465 11198.495512 14788.465268 13316.658278 11487.567889 13645.196356 6975.345910 6703.048012 11240.607637 3439.278218 18660.152677 19900.532941 19850.299991 13956.253257 10421.995978 12377.814110 5044.857705 16702.157873 6861.044037 15498.781493 7441.827509 4914.139016 4540.538221 18556.222612 19540.089072 18918.946486 18498.104726 15520.302019 14953.380371 9882.821994 14450.658841 9558.758791 14792.843139 11106.891462 6859.431187 8011.423633 18482.384631 20153.799232 20027.481359 13846.450574 12205.647333 12309.228318 10325.290693 10825.030592 12147.631987 9903.285085 9032.173744 9308.781740 4885.070246 18587.512422 20483.872773 20743.233077 15684.611065 18801.462006 10937.317220 8076.668218 11586.616872 6780.351309 14136.300254 7372.302949 4057.679953 8170.835359 18718.440126 19749.444151 19799.084899 17612.016845 17040.720958 12166.793465 11874.010602 8351.070078 10565.981782 6853.633354 7716.867624 7684.175647 4890.135323 18887.823416 19177.596835 17344.369328 21397.724165 17280.356603 20192.229394 12031.469834 16814.890363 9978.899025 10226.186053 8405.844380 6638.280913 4451.603099 18928.334994 18667.848293 16785.200238 18236.055347 16977.424688 15919.417193 14820.182797 11067.452877 10454.506493 15083.656129 6196.509240 5372.636190 5392.078931 18759.939778 19522.604383 21523.637150 15780.823678 19169.288198 15827.553721 11046.811413 13523.050023 13178.667993 17501.545125 10650.518606 6760.200254 3254.412424 18670.432365 20058.970744 22441.416804 17823.104996 16809.785378 14903.423463 14487.000303 15647.070994 13861.182214 7291.496849 7735.611080 12519.311721 4080.455019 18815.270810 19396.930465 19002.855064 18143.117433 12973.397427 6816.144007 17596.057072 14206.365583 12414.524186 5556.096469 9167.760080 6992.897958 9479.270433 19062.072661 19730.668769 21717.349063 10353.776641 14209.221512 16470.778163 11151.984774 9763.119853 12071.513391 7701.172534 8346.077844 7747.356188 2094.246686 19087.285557 18921.228165 21359.314354 13383.958413 11025.385969 11793.996393 11056.345585 10266.793517 9468.642989 10272.978592 6465.447503 7632.521193 3964.663189 19341.260720 20721.662274 21271.827916 14965.291424 17198.657554 14961.940330 11708.220859 15040.790743 9824.462862 11391.287939 9735.232339 9810.234528 3293.400264 19666.648121 18851.668634 17016.963914 18149.838983 20400.542309 16701.984772 19088.213796 17592.922949 12492.705291 11032.895444 6763.794850 7161.345977 4281.256731 19641.614639 20288.612070 19257.514724 19068.517232 10617.891451 15637.989887 13096.377065 10902.446330 9509.794367 4289.140860 9997.167286 9163.727481 9012.309433 19514.284784 20376.006706 19984.912308 17641.190964 16702.771960 9188.553608 15854.149254 11018.180330 8722.468115 9905.566826 4460.149980 12913.410632 5620.789748 19386.288760 18768.167715 18766.152734 15327.021162 17842.627645 11360.383187 8146.848829 6579.979209 6919.322501 7709.494052 4335.435906 7785.739952 5420.235060 19504.491810 18698.641158 17861.207675 19872.012836 20816.439534 12304.040998 12814.334181 13496.799424 12178.104014 11470.944442 8929.777047 6908.124933 5622.403948 19589.870862 19444.976577 21444.374183 19022.464062 20285.846007 13429.542422 11007.728082 15379.532820 7527.351798 8616.503412 5523.360387 4867.379793 7729.953273 19790.328014 19996.205948 20592.361911 16765.912196 9698.328366 15830.050983 18762.758576 9089.483202 11579.592867 7611.199941 11071.609288 7144.032507 4204.000554 19927.038266 19989.408307 18687.432521 20453.802324 19814.440592 14411.460853 7508.924749 6084.570182 6503.583274 12764.001533 7551.719395 3577.829399 7638.730981 19912.288657 19124.919419 17043.899787 14913.646051 17852.207837 9290.583764 12912.729008 8687.143256 7673.982205 6471.656892 12542.884518 5462.342393 5694.244174 19927.267120 20450.558023 22789.319010 17815.045964 15598.499250 17034.994674 10326.044700 13251.133915 12765.904926 7800.915390 12474.236929 10649.442259 3204.598303 19842.591076 20244.188441 22677.688886 18123.729542 15094.537311 15985.521014 14586.761513 7653.661542 7124.108523 11310.583957 6016.013417 7822.766252 7433.135645 19704.225315 19966.604371 22614.434126 16287.982624 14132.218477 16267.213560 10924.496822 9397.413738 4426.257896 12254.189592 9249.912513 9950.754532 3234.227546 19774.159124 19537.583285 20504.814568 17589.680199 14809.127047 12533.138054 10933.458207 7377.096689 17255.480770 7077.206209 8064.256523 4248.445753 3979.352099 19511.325910 17752.303013 17699.782837 17804.956454 20039.773938 13229.531283 11664.739173 13463.351427 11290.610179 9738.976734 7134.338470 12096.856397 1969.875869 19478.355707 17939.296784 16829.638079 19539.687549 12494.107836 7710.286967 18979.953272 15256.607425 13794.854125 5910.675360 6825.942544 4031.862672 5642.654369 19578.646495 17456.380856 13405.863557 19659.522398 16927.387183 16770.986297 17952.931100 11902.920924 12433.888758 3693.589425 8660.521621 8135.081931 4713.711548 19355.372397 17602.343531 14045.757789 8547.513388 16359.835259 11353.082865 6684.487036 9413.607121 4843.776864 14228.076215 14967.922270 4195.822529 4879.314573 19247.544802 17604.997684 14359.060495 12909.839852 16343.920330 13851.770116 17308.806470 9388.492623 7405.669803 5294.404375 8973.859114 5999.704921 8409.488292 19428.745485 18849.504774 17249.837115 15110.923996 11061.132349 12151.422258 6991.328017 7015.172079 4189.581786 9382.655135 7597.992597 10115.187979 5123.503026 19457.994183 18758.632717 17904.799511 16108.236084 8684.577219 16050.990530 10859.915350 8612.200805 7389.624231 10964.348460 7265.922393 7481.895067 6053.677810 19265.593114 18394.234417 16982.832929 13389.633923 14593.561656 10511.016822 12213.755883 13938.103648 12835.799029 9927.289836 13685.850701 6444.789170 3263.787265 18896.000561 19806.132084 19645.502209 18064.302279 10881.719660 17669.686684 8687.902923 9763.642394 9474.983612 8455.519110 11616.058434 4129.088967 7316.892632 18710.193718 20245.932335 20123.203171 18139.858072 14620.492748 12139.099913 17022.986751 8579.404147 10351.854290 6230.031610 6128.035898 7664.714439 11292.647291 18865.088229 18467.713494 14732.198587 12863.069566 20673.403577 6056.286103 13246.952989 11293.336597 13804.407882 4928.916569 10160.474967 4316.700503 8333.003526 18939.196597 19040.060738 18958.716943 17840.960402 13548.795901 15593.014666 10506.648828 9165.499401 10105.874803 7742.859196 12017.376394 11227.366835 2131.838471 18524.793824 16836.879137 18396.257952 19943.347100 11302.058901 11636.126311 15871.045535 6507.869996 6652.803209 8702.622141 4610.598177 10941.848544 8017.847147 17879.001637 16369.707112 15948.525985 18310.782612 13705.743188 14144.186160 13456.378943 13261.320564 16043.990563 11403.297629 12305.333234 6014.450467 5490.857187 17810.879936 18136.271024 17511.195710 10305.887688 12297.208109 12077.186385 13860.747631 12014.640118 10636.984869 6285.588103 9098.075483 5221.676059 6908.221530 18090.576858 19048.374203 15891.905641 17458.341993 14459.093434 12948.921205 21441.345912 15797.109065 12925.445741 11772.316302 13806.794050 6634.347019 5801.902259 17981.292705 18350.904713 18615.765930 13089.044227 12059.938572 7426.517261 12564.204326 11941.746453 12268.162228 12648.304288 7518.453712 4778.153919 3814.330105 17668.641715 16124.844474 16007.400452 15772.455369 12652.279201 14980.706137 14599.909478 12620.697792 11380.712833 11314.075639 5924.586701 9502.111997 3229.311975 17600.273622 16683.688629 16810.830464 18139.151076 10946.343153 11082.531161 13226.276255 6845.862575 7774.095119 6490.422098 6863.608187 9175.260167 2683.735487 17902.305132 17489.100334 16497.658897 11874.061184 14456.342657 14531.928702 16393.970463 7011.311791 12648.733832 12870.806216 7263.567787 4022.172178 6910.350412 18152.933198 17748.478025 14450.854074 11233.785073 11521.984167 13707.191477 12775.086819 10292.344744 12071.718578 13182.333216 5651.530630 3294.451620 9003.187230 18051.598000 18824.063236 16345.709680 15295.228765 7436.106422 14758.648710 16599.676857 14948.204377 6858.568559 3268.726238 7592.959507 3428.015951 4451.950895 17473.268006 16347.832375 13323.574405 17013.920094 10563.915025 10617.236993 10945.090469 11226.166514 10139.672411 13335.653724 9849.087357 1637.625724 5469.074071 17139.892356 16351.371696 14880.714978 13798.741212 14629.012147 11708.663515 10747.904804 8194.033044 8638.806458 8570.736812 7481.628674 5721.494874 5706.127444 17207.820178 16502.615962 13981.108430 11949.164047 14484.739253 11644.436409 14258.167043 13837.579599 6120.050763 11257.101718 16838.052265 5101.197515 4915.932995 16995.269819 16127.377612 14727.606912 13335.128162 13256.754754 13802.752705 12802.717371 10460.847334 7580.229920 11462.349873 6535.161611 10171.953494 2545.039039 16791.260708 16308.643416 17028.322172 12315.812352 5773.436585 12483.258326 14427.532307 3766.944771 10000.060838 12271.117371 7107.243532 7244.511887 4212.710588 17082.609839 16504.889951 15583.654372 17395.910799 13721.590848 15606.143797 11365.079386 11296.711090 11354.324041 8801.264976 7534.710680 9961.602072 4843.687444 17196.585583 15813.814020 12450.957397 9534.517354 16878.643096 11332.691670 12505.377249 13492.043226 10215.701686 12342.632827 7169.179071 10903.863744 2055.031621 16953.351891 16635.842993 14051.422782 15223.775176 12371.540279 7070.868743 12123.188717 10804.194338 19590.711082 11200.372353 4883.769955 6063.286447 5032.520494 16719.743834 16239.777385 15598.608020 11409.473442 13433.080152 13506.945425 9221.929314 11598.945139 14615.305952 10749.204179 11856.740862 11346.266501 2648.895473 16331.411835 14519.976811 18585.528852 13905.018978 14838.076241 15485.117497 11255.719567 14937.929899 10851.535005 14466.840930 10199.098365 5761.384138 5774.159950 15979.506847 14303.455016 17620.127705 16445.453873 13199.730006 8054.162830 12207.904637 12619.785651 11692.564440 4059.711008 4043.878068 8109.864891 4430.633886 16270.637699 17430.983694 19170.091942 14318.231972 15688.099366 10001.982876 11229.142543 12591.533297 8921.750356 12378.852195 12148.054129 8154.457037 8119.111191 16350.969352 15409.362268 11205.947591 17049.971193 12041.201874 13566.876033 15217.919843 14607.709352 13892.254291 11607.954119 10504.185977 5416.513566 2725.286097 16135.404991 13442.614661 8410.556439 16306.443438 10696.611924 8833.497068 12637.231406 10948.016304 10977.390837 7792.726375 9654.362389 13722.210580 6149.953272 16168.646770 14696.248016 12076.899261 13108.477499 14048.190703 15414.681821 11926.203484 10795.849967 13488.012069 7583.075869 11574.186876 5825.244198 -38.612054 16020.332260 15490.233591 14974.640641 9475.661010 10333.116317 14939.294510 10815.169206 4138.686752 11403.299135 10458.183397 10306.951321 2582.574345 4129.716750 15626.187849 14594.251816 13931.028901 13908.208747 10696.412665 9204.220625 10558.986708 13527.892258 8078.301789 11723.340734 6207.832631 5154.346810 5469.172509 15575.520890 14750.973464 13198.905498 10705.710447 12754.848247 12776.464342 9880.532169 9518.220665 16111.703976 5757.452094 6154.022594 9332.630124 11135.602397 15795.945244 16458.137958 14037.914692 13075.953537 10997.753866 11484.749552 16264.640061 10251.759571 12391.765555 13313.823686 15029.570590 10709.838783 6627.212765 15560.804975 16077.961851 13124.859506 9599.874186 15192.031214 14204.517228 13710.909375 11065.867080 10269.595140 11912.738621 16169.378830 12820.500921 11641.168496 14964.923083 14728.543063 13006.167535 16228.402738 17596.785150 12589.810270 11468.587914 12678.220808 11958.552532 17308.692229 19805.415079 12410.631915 10332.228037 14712.276189 14360.568040 14414.419860 8493.271143 11703.572188 14374.142563 18522.135274 12618.453958 12353.570967 13510.386481 14171.088194 17778.474588 10398.238348
</DataArray>
<DataArray type="Float64" Name="Velocity" NumberOfComponents="3" format="ascii">