<VTKFile type="PolyData">
<PolyData>
<Piece NumberOfPoints="2177" NumberOfVerts="2177" NumberOfLines="0" NumberOfStrips="0" NumberOfPolys="0">
<PointData>
<DataArray type="Float64" Name="Pressure" format="ascii">
 14115.601597 14027.624609 13776.929588 13336.339720 12728.576332 11951.175302 11025.079222 10027.596631 8992.618422 7919.746874 6831.232672 5763.461131 4753.236528 3804.845665 2924.673801 2125.853438 1437.061474 868.526723 406.588062 30.897777 -276.774010 -530.954631 -742.578729 -919.707917 -1068.401590 -1193.551474 -1299.770676 -1392.177772 -1475.172731 -1548.759368 -1609.520531 -1655.071505 -1684.761672 -1698.845362 -1698.029399 -1683.302106 -1655.860812 -1617.059573 -1568.356874 -1511.262025 -1447.283767 -1377.884776 -1304.444667 -1228.232752 -1150.390740 -1071.924995 -993.708421 -916.495070 -840.960992 -767.816584 -698.124493 -634.027881 -579.632828 -539.656615 -515.486110 -505.130879 14332.656234 14285.681740 14098.465980 13724.934971 13074.638261 12246.307064 11345.281584 10405.122534 9431.813913 8420.926240 7339.187865 6202.662742 5158.873499 4175.372569 3218.468778 2283.172199 1496.769388 890.416733 415.994340 35.816029 -273.717711 -528.753219 -740.773244 -917.987819 -1066.358870 -1190.402289 -1294.131988 -1383.079354 -1467.171009 -1545.011604 -1608.014333 -1654.410191 -1684.381681 -1698.563638 -1697.790679 -1683.091393 -1655.675071 -1616.898815 -1568.221397 -1511.151618 -1447.197554 -1377.821278 -1304.401907 -1228.208290 -1150.381409 -1071.925675 -993.707754 -916.461359 -840.797043 -767.222455 -696.213079 -629.014257 -569.905519 -529.085528 -506.723354 -498.032795 14642.673564 14493.482623 14743.916926 15435.931256 14012.238412 13089.252670 12283.860177 10827.400472 10026.027640 9269.033562 8466.785015 7208.324872 6114.446728 4950.945107 3917.890680 2582.105376 1588.835259 918.042564 426.652846 41.103077 -270.524693 -526.487049 -738.917186 -916.190171 -1064.128667 -1186.660672 -1286.073004 -1364.938136 -1448.987877 -1540.005338 -1606.878899 -1654.261595 -1684.513701 -1698.769347 -1698.006077 -1683.294944 -1655.858611 -1617.058895 -1568.356662 -1511.261951 -1447.283716 -1377.884667 -1304.444328 -1228.231653 -1150.387157 -1071.913308 -993.670300 -916.370734 -840.555560 -766.492921 -693.841184 -619.344470 -547.388539 -508.716958 -491.617853 -486.122480 -502.511451 -484.549593 -477.391833 -456.233287 -449.720876 -446.172915 -408.134129 -406.570089 -405.148296 -366.687745 -366.260144 -365.764824 -329.096446 -329.002188 -328.812955 -294.741124 -294.744430 -294.653973 -263.329810 -263.361088 -263.303024 -234.671063 -234.709116 -234.662830 -208.598824 -208.637143 -208.596295 -184.952554 -184.989137 -184.951777 -163.572857 -163.607109 -163.572618 -144.301587 -144.333363 -144.301514 -126.983075 -127.012384 -126.983052 -111.465490 -111.492401 -111.465483 -97.602038 -97.626647 -97.602036 -85.251936 -85.274355 -85.251936 -74.281153 -74.301502 -74.281153 -64.562937 -64.581343 -64.562937 -55.978163 -55.994754 -55.978163 -48.415505 -48.430412 -48.415505 -41.771486 -41.784834 -41.771486 -35.950396 -35.962311 -35.950396 -30.864132 -30.874735 -30.864132 -26.431955 -26.441361 -26.431955 -22.580189 -22.588507 -22.580189 -19.241881 -19.249216 -19.241881 -16.356431 -16.362879 -16.356431 -13.869202 -13.874853 -13.869202 -11.731118 -11.736057 -11.731118 -9.898267 -9.902572 -9.898267 -8.331506 -8.335247 -8.331506 -6.996069 -6.999312 -6.996069 -5.861201 -5.864005 -5.861201 -4.899800 -4.902219 -4.899800 -4.088084 -4.090167 -4.088084 -3.405275 -3.407065 -3.405275 -2.833306 -2.834844 -2.833306 -2.356560 -2.357881 -2.356560 -1.961619 -1.962755 -1.961619 -1.637047 -1.638026 -1.637047 -1.373192 -1.374042 -1.373192 -1.162019 -1.162762 -1.162019 -0.996953 -0.997612 -0.996953 -0.872758 -0.873352 -0.872758 -0.785434 -0.785982 -0.785434 -0.732129 -0.732649 -0.732129 -0.711087 -0.711595 -0.711087 -0.721602 -0.722116 -0.721602 -0.764003 -0.764539 -0.764003 -0.839655 -0.840230 -0.839655 -0.950983 -0.951615 -0.950983 -1.101509 -1.102216 -1.101509 -1.295920 -1.296724 -1.295920 -1.540147 -1.541068 -1.540147 -1.841463 -1.842526 -1.841463 -2.208609 -2.209839 -2.208609 -2.651927 -2.653353 -2.651927 -3.183521 -3.185174 -3.183521 -3.817429 -3.819344 -3.817429 -4.569819 -4.572034 -4.569819 -5.459193 -5.461749 -5.459193 -6.506612 -6.509555 -6.506612 -7.735931 -7.739309 -7.735931 -9.174042 -9.177910 -9.174042 -10.851131 -10.855546 -10.851131 -12.800935 -12.805960 -12.800935 -15.060999 -15.066699 -15.060999 -17.672931 -17.679377 -17.672931 -20.682649 -20.689914 -20.682649 -24.140607 -24.148769 -24.140607 -28.102008 -28.111148 -28.102008 -32.626977 -32.637177 -32.626977 -37.780703 -37.792048 -37.780703 -43.633533 -43.646107 -43.633533 -50.261004 -50.274894 -50.261004 -57.743819 -57.759106 -57.743819 -66.167728 -66.184494 -66.167728 -75.623340 -75.641660 -75.623340 -86.205816 -86.225759 -86.205816 -98.014463 -98.036091 -98.014463 -111.152203 -111.175566 -111.152203 -125.724903 -125.750039 -125.724903 -141.840571 -141.867502 -141.840571 -159.608397 -159.637127 -159.608397 -179.137634 -179.168149 -179.137634 -200.536322 -200.568582 -200.536321 -223.909837 -223.943777 -223.909834 -249.359280 -249.394803 -249.359269 -276.979690 -277.016662 -276.979652 -306.858104 -306.896337 -306.857982 -339.071478 -339.110683 -339.071083 -373.684520 -373.724155 -373.683239 -410.747617 -410.786408 -410.743457 -450.295366 -450.329754 -450.281861 -492.347433 -492.366492 -492.303593 -536.917244 -536.885945 -536.774937 -584.047433 -583.849664 -583.585477 -633.930235 -633.168803 -632.431823 -687.535472 -684.616182 -682.651653 -745.355108 -734.504142 -729.955289 -775.074189 -757.676157 -750.156699 13944.602380 13617.546801 14019.813305 12444.348625 11404.007382 11209.906322 9262.746516 9024.290247 8225.997668 6316.174602 5299.269494 4767.272390 1946.537668 1402.743595 1713.301308 320.830480 -8.805764 -72.974401 -61.462566 -42.962659 -44.478559 -79.122043 -153.697481 -268.911408 -419.155651 -593.963530 -780.508929 -966.058490 -1139.763412 -1293.647109 -1422.882210 -1525.535035 -1601.977496 -1654.158650 -1684.895509 -1697.290916 -1694.328140 -1678.641906 -1652.433132 -1617.481280 -1575.209738 -1526.769602 -1473.119585 -1415.090839 -1353.433268 -1288.844265 -1221.981688 -1153.459292 -1083.809239 -1013.347637 -941.782649 -865.352209 -796.304631 -766.415997 -753.614244 -749.098634 13946.469536 13698.217283 13337.392005 11798.923897 10105.018841 9406.970480 9039.843269 9146.978681 8246.043567 7080.914661 5873.405193 4305.566806 2274.354854 1202.775081 679.797278 240.760004 1.354005 -59.965153 -54.460666 -40.023629 -43.588768 -79.159843 -154.092101 -269.359946 -419.496439 -594.123495 -780.474294 -965.852972 -1139.430822 -1293.237826 -1422.443372 -1525.104381 -1601.580700 -1653.809538 -1684.598225 -1697.042959 -1694.123366 -1678.472933 -1652.292938 -1617.364029 -1575.111045 -1526.686435 -1473.050042 -1415.033983 -1353.389352 -1288.816142 -1221.979981 -1153.519708 -1084.049825 -1014.166055 -944.492030 -876.198011 -816.162363 -780.739219 -763.445900 -757.007112 13990.228973 13772.364135 13399.390959 12667.352136 11707.620789 10844.434814 9973.051649 9095.667843 8142.617762 7029.068340 5615.206295 4018.204973 2489.971634 1348.034107 634.065723 213.145933 12.275755 -48.140637 -47.458017 -36.410604 -41.611290 -77.858712 -153.108541 -268.617611 -419.002047 -593.881680 -780.465330 -966.035506 -1139.751478 -1293.641020 -1422.879165 -1525.533544 -1601.976784 -1654.158318 -1684.895358 -1697.290849 -1694.328112 -1678.641895 -1652.433131 -1617.481290 -1575.209777 -1526.769728 -1473.119996 -1415.092175 -1353.437614 -1288.858404 -1222.027697 -1153.609012 -1084.296331 -1014.935080 -946.895973 -883.130527 -829.333945 -792.189244 -771.414436 -763.035559 14784.922462 14308.476811 15341.057521 17000.279673 14770.274674 14242.145623 13326.402365 11128.435792 10247.029591 9475.145610 9307.876474 8124.391173 7363.082124 6198.206122 5393.454544 2940.511299 1619.033239 924.525299 428.475249 41.723108 -270.284923 -526.366650 -738.815358 -916.037737 -1063.805989 -1185.845383 -1283.437719 -1355.591446 15170.568953 15722.335426 17966.189087 18516.349458 15422.991452 16178.279469 18339.218822 16636.213115 15091.717314 18795.132439 16228.605325 17106.990580 18646.197815 16517.046694 16668.417201 19532.097280 11699.280740 18330.877796 15528.577276 17589.270989 18513.682625 18462.716359 15011.605374 12877.409599 12129.278822 15060.630246 5550.974604 6334.296197 15799.248873 17642.571991 19180.174504 13393.215601 14071.323402 16703.049459 13611.887418 14400.290119 14257.363464 12925.624642 15155.066046 13854.568156 13706.864327 16085.967272 11398.588197 19396.393311 15198.971113 13948.697401 16935.365482 10905.291336 12833.089672 14174.927970 13671.954906 15238.987211 18971.625557 13317.014205 15083.940294 12871.351564 16277.968595 16240.862599 15224.905487 15419.104534 17700.174738 11975.376753 13841.858479 14287.839371 12593.229064 14627.338706 5496.057211 10867.766337 13663.929629 11998.809918 12712.945600 16830.051050 12767.123036 13700.282283 13185.642097 12666.905697 14232.988045 11723.657853 10323.432379 11616.599942 16103.380250 10396.796139 17331.792600 13015.521173 16551.106454 17030.759633 17323.212996 18774.252450 12675.168205 16764.926407 10679.329763 6293.389778 19235.391562 10028.088501 11815.262440 14283.915506 14015.179093 11784.437646 3555.949141 9239.227182 14441.205498 11108.326218 14442.031750 12818.064469 2128.335633 12266.881830 15423.676681 6643.142673 6329.539917 5802.405432 4327.038231 10025.763404 16776.180469 17359.821366 18178.942567 14402.017184 14767.376052 15851.771544 18014.346930 10793.646162 14567.022929 12796.857979 13830.329919 14284.069104 14602.413813 7046.131181 11178.357690 12598.984869 10846.413917 9308.054668 13304.514610 11330.840146 10543.598027 14613.252079 12393.344448 12993.851722 12857.414749 9621.537606 8766.671450 7030.967345 16985.843945 16078.872467 14750.934485 17514.405794 13828.966284 15461.542172 6268.434972 10566.464086 15435.743401 9949.928220 14289.574856 15161.111462 13140.198086 14479.341017 17693.718296 8083.943484 10766.236925 14803.572177 13294.117010 9771.302364 6299.040985 14513.806826 11951.425866 12559.903627 7377.197616 11564.786175 9407.752914 3351.890527 17070.723679 17875.451560 18992.618746 16462.248743 15702.415412 17139.882865 15541.656551 12702.377355 13570.153847 14908.366739 15462.067105 15335.032028 10454.274604 8289.399689 14785.896943 14497.772792 9055.637888 15399.176979 8402.367710 9726.765950 14430.623015 12345.344415 6468.256144 5964.712595 11429.142402 7660.837402 4692.316518 9792.711912 17146.781789 19907.203404 22885.744582 16197.161104 19396.069103 16630.661251 14647.342907 16892.671925 11425.037458 7983.532955 9348.559555 12267.544767 12196.800774 15223.144474 10401.009201 8915.505711 10299.196076 5542.751656 11021.824704 5899.165442 8343.676611 10379.898896 5556.688904 10427.393205 8091.023085 5525.288728 8471.657521 6201.568912 17434.371745 19206.089043 20456.292413 18382.521966 17918.837807 13519.617325 15698.746888 15155.554624 8912.517201 13806.669307 4141.330791 11920.842508 7820.143405 7853.030398 6033.511593 8078.996698 6864.510548 7238.493980 13326.164807 6910.781238 11088.138882 12338.585647 6855.009895 8166.296949 15637.925084 11176.870054 4269.656741 2420.428877 17639.774989 18416.431850 18214.132792 18428.265533 13031.365488 16103.543749 13376.116677 16028.247537 10608.875514 17020.310867 12216.661381 13630.591307 8537.905772 8091.133026 14287.325464 6354.867592 3425.470034 8576.532360 12784.965907 7275.908391 10140.803769 6135.306186 5707.085700 8100.450974 11604.059606 6780.114111 4612.047142 3534.221162 17746.662303 18953.041967 19254.088340 20663.746030 14153.977472 13499.604636 16343.611417 13089.532680 9409.053930 11841.551042 5544.128443 12207.625578 11985.938265 11300.962977 13412.514490 14008.451396 14486.725172 9391.408150 4875.393230 7521.993720 5092.817895 5802.379777 7561.827758 8510.350529 6414.802314 12965.665969 3494.792880 4688.297708 17683.792468 18984.253109 20213.413920 10086.734603 16289.967877 14185.512403 13095.496332 7548.542313 14519.020861 15712.720502 14773.660389 5324.822469 7310.825174 5301.927746 11015.148081 13683.531884 8513.523718 4275.736077 13045.830568 13038.491878 9456.902209 10004.722565 7356.810002 10770.033738 10985.238165 13891.024527 4617.919789 11827.240424 17549.517578 17454.992666 18657.466386 14861.731057 14723.392569 9378.042711 19587.445609 16108.213903 8700.629348 15857.477906 14080.894251 5666.514942 7046.834991 2662.393044 6663.213747 3933.202771 6582.214353 2905.988598 12547.605428 5995.311141 17225.225410 4014.178030 12079.608446 6358.787654 10125.627002 10702.726502 5041.696550 1595.989240 17808.075889 17982.213481 19075.136932 13975.630062 17758.630909 16089.752272 14193.061478 15972.512103 6612.168459 15996.993023 13099.722837 6206.601239 7969.168045 5570.471157 4986.255242 4215.002625 1149.431743 5320.046739 5316.483674 5411.899170 6989.383077 6643.544023 3444.647611 5537.893296 2082.984824 3889.205508 4416.321667 4229.061436 18166.318063 19607.234509 20063.991255 19929.008659 16538.538622 20739.633595 13707.693117 16753.917656 13842.556027 10240.441514 12561.794209 6387.717050 4206.925246 18171.649695 19408.577761 20204.118072 15058.406967 20352.284942 13993.561707 15773.069366 10780.979886 14006.995309 9610.919616 5954.454767 6255.067266 5337.666492 17887.069343 17613.421428 19173.066054 9554.233790 17206.089643 15453.613389 14474.234587 11648.963611 6496.299090 8915.506158 6798.977888 5876.131979 6101.182300 17700.066477 17659.442350 18741.832185 13176.764346 14240.747854 10088.961273 15713.254325 10319.865307 7711.904439 9371.522578 8349.181528 13175.985636 6304.038784 17956.641925 19212.216865 21183.747796 19095.373813 8855.631810 10803.540028 11179.301043 14521.529167 11363.168803 11449.453644 4447.318700 6905.093319 8026.246229 18190.931654 18233.380766 18261.880040 19958.827976 17655.783891 14881.357948 11914.544909 12564.683160 11313.462542 6410.003883 7076.234207 4525.450969 6043.597451 18455.036069 18552.289139 19519.205709 14833.870752 19203.282417 13310.123537 12577.291759 9444.892524 6107.484005 13347.586516 5745.039438 10247.470663 3119.657892 18631.374720 18621.678011 18648.579646 19343.955131 17061.473003 16505.558080 10808.160647 6246.774145 13261.400314 6363.937132 6698.688182 4021.016059 4570.602511 18740.304949 19092.398367 17857.328145 17046.403070 17896.476693 14212.091575 9963.569319 11309.118151 12399.714217 7855.650769 9200.677860 3054.899459 5540.046245 18830.944236 19585.161911 19705.557489 10588.762388 16496.895022 17303.377084 9082.642932 10507.295041 8436.459856 9485.930851 11349.141845 5620.729532 6668.191554 18745.140481 19810.384342 20525.770878 18231.050988 18049.306644 16378.267469 15123.219973 8197.964417 4818.683564 8859.496267 11646.613740 12813.480296 6485.755288 18664.897178 21294.307039 22657.461820 14355.286850 12786.738551 12624.016991 8835.305536 9754.009708 8326.840800 13603.057376 8433.616219 8398.740711 6707.846084 18676.216637 18850.736021 17905.131173 15270.747996 16929.328988 16981.062403 10925.918418 13144.685295 10266.011388 8865.800610 14534.244712 6841.494046 2807.791665 18846.124147 19481.207878 20834.048181 14063.389765 8158.691670 16353.232435 7286.668723 7716.243853 11757.217023 12329.247533 8683.855080 7192.454447 7005.055234 19128.590661 19342.007516 19210.185155 11715.149370 13935.460577 16164.854348 7978.856014 14941.679947 5846.003097 8691.120610 8163.761390 8379.561374 7417.595833 19351.749033 19265.134869 18603.151030 14567.425408 11175.889716 18487.391552 15672.776548 11112.565299 14363.839164 9830.232891 7667.648936 11824.659450 4982.961019 19723.940170 20737.083362 20149.497798 13706.211260 11014.525672 12154.099020 6589.890513 14082.510190 8293.333802 16871.435799 11966.152436 5033.118699 5405.451725 19901.127309 20529.650083 19992.359696 18803.166305 13592.016061 17600.206527 8161.320272 17365.897034 11003.422686 9825.376823 9759.419021 6184.452984 8748.060392 19842.057060 20245.470054 18824.161638 15004.879271 12039.872571 11563.111542 13041.542097 11288.517433 10953.546128 11301.061929 9225.215981 8966.983880 5678.892075 19853.513755 20927.890804 19988.070189 14824.161235 20286.368327 11851.318762 9462.171690 11324.926712 8030.689307 13623.084548 7996.560049 6158.580749 8799.620872 19824.283835 20992.455641 21592.034946 18331.488092 18744.564891 11747.933606 13218.442767 9398.011209 11905.938098 5755.075710 8195.916926 9034.062098 2519.287961 19541.345653 19327.602264 18662.500155 19141.868516 17749.138810 18327.053063 12914.303408 21292.094578 8421.902633 9819.390940 5463.057397 7728.003916 6820.548312 19266.058360 18762.575740 17967.114728 19623.541030 19222.345779 17939.132966 15372.460680 11349.493658 11879.750981 11565.078673 5097.121544 10618.723334 5218.231595 19302.877013 20138.276630 19392.558120 16799.336442 20681.377116 16023.733585 11460.856711 13619.040816 12697.933205 15039.059920 8641.540655 7736.709223 4915.508440 19443.697469 20293.109975 19935.885420 15658.663612 19456.175935 17677.325751 13736.805660 13494.435834 14062.626237 6914.558343 8501.429736 7628.862406 4117.502133 19424.808370 20344.978043 19373.249739 20527.252927 15864.535908 4743.674520 16573.049040 12934.532076 14459.799138 6481.488374 10231.753520 11049.132733 8813.258065 19573.543329 21179.415037 23939.484585 13105.164651 17888.608774 16891.304377 10201.163775 7058.590317 9164.840093 8518.615143 7516.660881 5128.777847 6151.361321 19578.944663 20020.910995 21451.161710 14956.656473 10527.466940 7398.241555 9146.784825 5799.657587 9336.185800 7498.544858 10034.697184 5800.847020 3133.493291 19548.671353 19544.058232 19928.677155 14423.471291 14458.830627 11466.699027 7887.310751 13687.493692 7610.771957 11393.919177 10833.904787 7272.278527 4019.396002 19553.482202 19339.080797 20240.564759 20878.071998 14076.045900 14026.648545 13055.651845 16402.865368 14120.200191 7206.291113 6877.189137 5908.896619 3381.201171 19578.655771 19441.961786 17703.287917 14830.038934 9479.820458 15231.978642 10703.613334 8247.231792 7955.897596 4750.938977 11948.707043 9081.838130 6513.204138 19624.372136 21308.122883 19440.577987 15457.852486 20609.233219 9684.622712 17093.063494 10362.175246 5394.529639 6965.768396 8297.247292 6953.253958 5262.013631 19708.857107 20649.154406 18714.799213 13337.701055 15759.389540 10419.040044 6744.544435 7433.207032 7465.106465 8687.534877 4794.016845 10461.793120 4152.241871 19497.845421 19693.795451 19076.082345 16969.038546 18622.409177 12805.730485 8264.170837 13108.488512 8792.396565 9139.621152 4204.600801 6030.618992 3328.862208 19192.451708 17482.891159 16436.768982 12695.948344 16827.698051 15695.226875 8897.556774 14284.048812 6767.528188 6162.245327 5720.319294 5268.440421 7708.094871 19141.863177 17073.030908 14478.757064 18385.572403 7885.140478 18566.618875 18165.684007 11404.096581 8114.081219 8347.350117 6240.038658 6627.219815 3187.691288 19241.744048 17952.594297 16700.497803 16069.192406 18128.424377 12266.445692 10576.852502 6725.190155 7971.317897 11069.902157 6654.461999 5330.243222 5185.153385 19102.114509 19037.165208 20674.398423 15133.508943 15650.637045 6865.151058 12270.222841 8757.279723 8023.289523 10396.471627 8335.310368 5306.179801 4434.151414 18817.403684 19856.812697 21257.610222 18118.996738 14931.169402 15650.069294 10329.401815 12113.009620 9485.610940 5172.494689 7859.820791 7934.088697 3477.747412 18555.531103 17919.954663 17998.269883 13545.463526 15482.715176 15845.421777 14680.620143 8711.088508 8862.593455 6768.214243 8094.050200 9994.823012 2308.110787 18307.527846 17618.989466 17309.624529 15041.846389 11924.872261 15548.534231 8009.901533 11531.913744 6521.653515 10039.460324 8391.454417 10267.061196 4225.496747 18171.771996 18232.642978 18475.577305 17735.700565 15569.574883 13072.222188 13414.090066 6804.990339 13161.547562 9807.944465 6796.496555 6608.124946 3735.931985 18236.906673 17984.839899 17405.450174 15057.703901 16455.660549 18932.493362 12237.120838 12943.635935 11598.174945 5292.127440 5396.968102 14585.644874 3244.260256 18316.746368 15730.390356 10820.003160 17519.182286 11994.789174 5915.357899 16162.718555 11760.241555 11924.305070 9210.828107 6364.504627 5000.470934 2632.820744 18308.113588 14741.798722 8584.402757 15485.763051 16567.629001 17659.697447 8914.201341 11292.637952 9106.348811 2904.727267 4957.683643 7381.811046 4659.532078 18119.307671 16264.081206 13020.057859 11045.835174 16651.631577 14029.857033 4721.670766 8904.137809 5372.170582 13209.643859 11300.915934 4946.302847 6250.814043 17815.117702 17956.513269 18940.946579 11878.899452 8050.878118 12153.416177 17478.195092 9951.922150 7263.018970 1408.250785 7914.536516 4285.320461 9421.244664 17537.481243 17142.804651 18653.885564 13298.264666 10446.056026 14480.409095 9085.336631 7267.375391 2989.097780 6360.534412 10309.655712 11854.875980 5089.954035 17548.318534 15090.092544 13801.344023 16315.598509 8668.535833 14742.731197 7024.081981 6052.639819 7342.993245 6341.624841 4270.841448 4295.018394 3288.722508 17633.983069 15037.712264 12837.702934 12849.744233 11667.055513 8012.142822 11417.117310 11685.322740 12758.893099 8903.498737 12249.047679 2678.852194 1356.395702 17700.348340 16342.115869 12708.279029 16304.110896 13223.225327 14519.207955 7088.192363 11591.923334 9847.900433 7930.033175 11629.890666 3763.452449 3503.366474 17779.842411 18576.604854 15582.918509 16975.974291 14158.072038 9713.473309 9621.496179 9374.768267 9530.360558 3493.688567 3819.418711 5457.378407 7083.685631 17353.301360 17322.670186 15534.959923 12446.152275 16050.416622 7185.848440 10209.121982 10933.795418 10793.222682 4772.976579 8945.361805 4959.241385 7139.719618 16684.141029 15895.070396 13908.207889 15268.930623 9818.317202 12013.007539 10147.464336 5344.411465 11819.458466 7885.906187 8980.250997 10953.365048 1717.501743 16401.220734 17595.943407 15446.930691 19225.448690 13151.254221 9063.828049 8412.075866 7936.231380 6719.129459 8178.522767 6270.428408 12680.794518 4374.902862 16189.517186 18230.843988 17182.316184 12906.390877 10104.690150 12898.498183 11207.881519 11657.847380 11826.176972 6280.443673 10967.571272 5730.974157 3003.145192 16138.885478 17687.463095 17748.409021 12376.094412 9831.661376 9572.646869 8486.021305 10452.653466 10679.326287 9597.682414 5551.304557 6493.606783 2419.780528 16070.965530 18282.381818 22727.566664 15623.661848 10659.145228 12332.565889 18826.274909 14972.681169 9659.313521 11902.681702 12032.269814 3753.960744 1779.928016 15909.175753 17436.434815 18672.299043 11422.460681 11168.667117 6495.055944 9766.174762 12042.975605 8950.240065 9554.894149 4767.289201 2162.999240 3820.003143 15729.583454 18123.173895 18770.331396 13555.279490 12467.400427 7306.575519 10642.906249 8428.332885 9233.079883 9877.825364 7334.714377 10200.460549 2848.919715 15837.862170 18848.645612 20334.880505 14022.294685 9888.245548 10231.520157 13719.897403 10510.928075 9061.771149 5707.673812 7074.587196 8611.945852 2491.052308 16469.720389 17384.400463 13168.114600 9660.139992 14990.986030 12181.131785 9480.249596 7450.933316 10685.677190 11098.071283 8144.106191 3909.712720 3115.601532 16752.910915 15557.673612 9164.174737 12082.789374 9910.886204 14116.574238 11732.274397 9102.738926 12586.343931 10225.117560 2411.683249 -519.554561 3942.110485 16557.151326 16042.496557 11485.919138 14536.854428 12503.403209 15983.583636 14351.572660 8669.441660 7857.964815 3784.908042 14445.131350 6312.292793 7585.907671 16332.664439 17559.165482 16894.662495 13699.627837 11286.305169 8514.762228 6910.060021 11347.641343 9210.625375 11824.513765 8388.034884 5049.824639 4988.114109 15966.495615 17067.687467 17512.415774 15275.763916 12293.951347 8815.356841 10578.488056 8430.004106 11992.650809 10151.490323 5371.631239 2344.172336 4021.940895 15765.836871 18207.607350 21769.130975 11579.179059 10342.142529 14481.489567 12025.137364 12434.465934 6480.761069 10747.820173 11300.171519 4754.157764 5362.618585 15734.317981 17462.414535 18312.850729 12864.911794 15987.867433 12709.524683 15939.894672 11163.451439 8624.590744 9553.351847 10906.888516 7052.544777 6859.211951 15666.125112 17563.870370 19607.346195 8516.151138 4979.916200 10582.426815 8492.744564 5020.745361 5845.875091 9578.278198 5032.686651 5344.427931 5648.089982 15797.653028 17128.436522 19164.048873 17626.615012 15985.125850 10821.645177 10967.448244 10730.921074 10144.403148 10680.863857 7041.036491 6144.279733 2438.491281 16084.442820 16910.411117 16699.405647 9204.929461 14063.363435 8353.966559 12780.196331 11639.745353 5122.501987 9409.548225 2299.458963 11383.413622 6617.407692 16189.346387 15786.774387 12499.207267 13605.733658 12990.952680 9078.340180 16056.311584 7749.048304 18433.613193 14244.385992 6038.906712 6376.590668 5852.339243 15990.618356 16862.460876 16551.643068 5876.259909 10431.171257 13639.896117 8638.346753 10480.879557 12714.831967 10168.909516 10876.392056 14329.709519 3735.530870 15846.133321 16545.378274 17650.391243 14907.958256 12380.020857 14622.146590 14669.969704 13720.554167 8357.560246 8326.147925 13345.771127 3234.195668 2559.764696 15963.928082 13360.685846 10232.661877 10196.423904 11460.807482 7420.710188 10885.504698 11584.783247 9871.326624 5332.072890 5633.053972 6891.860963 2640.570757 16004.639951 14549.889359 13729.070159 13319.238366 10834.958480 13748.550602 9874.060242 13021.587519 9679.063744 11364.428694 11063.057192 7145.656362 4604.179328 15740.158801 15686.628504 16459.814280 12158.568550 9691.687118 10697.897746 11172.911989 9502.927771 9470.228572 10428.935185 11195.508851 3464.982752 5342.574299 15409.448796 15272.964910 16688.486115 12447.567830 9363.306964 10829.374791 11603.823276 10168.620664 7621.040395 8856.852276 9714.102787 10065.639541 8084.537147 15059.955841 15172.454136 17530.185469 11103.655006 9099.385118 11422.377257 11029.604677 11943.786140 12187.878632 7620.882702 8442.599533 4423.173371 4151.414886 14698.997003 15918.976816 17443.676278 6802.370344 8985.247595 14721.987151 10614.546838 6834.227787 9079.471894 11720.550294 6513.431685 3734.450359 4613.776594 14445.486852 15642.949145 16653.048840 9197.497480 7812.141143 11212.887417 13781.830950 12334.592161 6422.541298 8409.630198 6423.193980 5804.323193 6017.567395 14557.930187 16778.538820 17673.150707 10436.666809 13395.746608 8775.890742 11403.504206 6679.408321 8727.639350 3604.162954 7203.732602 11413.649296 9089.100155 14814.380033 16159.192360 15407.875194 10143.884133 9815.457620 7298.179561 10613.973375 10451.648747 12203.953417 9583.353343 12016.324583 12821.745677 5241.435956 14652.943006 15540.845854 16444.695297 6960.330044 12179.311370 11210.526261 12909.249087 13144.523965 11092.427191 13896.542796 14685.464127 12045.928983 10809.249788 14156.091894 14422.705814 16183.725491 13147.302145 12460.811674 11435.621063 13903.282924 10240.256758 7887.174760 17645.983366 12478.697833 8364.997095 11135.073977 13944.602380 13617.546801 14019.813305 10577.455136 9022.949030 9517.104491 12554.509204 8510.249871 13591.815207 9416.681053 12349.962135 14199.336648 11834.833060
</DataArray>
<DataArray type="Float64" Name="Velocity" NumberOfComponents="3" format="ascii">