<VTKFile type="PolyData">
<PolyData>
<Piece NumberOfPoints="2177" NumberOfVerts="2177" NumberOfLines="0" NumberOfStrips="0" NumberOfPolys="0">
<PointData>
<DataArray type="Float64" Name="Pressure" format="ascii">
 16807.839145 16410.321842 15694.499933 14835.196538 13925.515163 12882.473236 11675.557178 10344.840373 8936.422636 7420.177248 5728.925411 3909.293130 2346.833154 1376.785569 755.298132 -156.753225 -1582.382880 -2998.298166 -4022.011646 -4663.928571 -5034.743983 -5206.745435 -5218.829591 -5100.980640 -4884.690452 -4602.732716 -4283.061135 -3941.975527 -3587.393010 -3235.452739 -2909.143360 -2620.858743 -2371.245627 -2155.185455 -1965.792829 -1796.466415 -1641.807480 -1497.908035 -1362.280521 -1233.600435 -1111.378421 -995.638988 -886.651044 -784.729865 -690.111539 -602.889550 -522.998428 -450.230853 -384.283293 -324.848024 -271.826518 -225.780353 -188.442708 -161.846512 -146.033017 -139.256788 16593.131023 16106.103089 15196.671421 14268.081701 13572.629999 12716.111476 11504.395395 10028.797658 8671.194112 7286.176399 5542.822640 3364.220058 1606.197729 979.308791 978.708547 295.286697 -1770.244531 -3418.045323 -4311.958295 -4800.619372 -5092.197208 -5227.960861 -5225.181441 -5102.842783 -4887.760797 -4611.828727 -4304.433244 -3979.737783 -3622.001355 -3251.915276 -2915.631475 -2623.420423 -2372.411970 -2155.816674 -1966.181635 -1796.724576 -1641.988944 -1498.045580 -1362.396164 -1233.708601 -1111.487498 -995.752701 -886.769813 -784.852004 -690.234061 -603.008127 -523.105294 -450.306701 -384.270603 -324.569591 -270.756993 -222.888535 -182.901311 -156.172649 -141.674322 -135.931730 16369.502022 15757.430056 14189.932687 12154.421586 12097.097593 12754.399957 11297.703797 9090.021128 8843.488888 6910.775215 4961.585222 1911.564551 267.067443 481.448150 2061.566633 1933.556596 -2576.076318 -4486.089158 -4729.194799 -4973.686772 -5161.459053 -5253.707536 -5233.456780 -5105.712171 -4891.868412 -4623.477874 -4335.791069 -4055.421376 -3701.816433 -3274.968817 -2921.340669 -2624.673275 -2372.432842 -2155.554247 -1965.907160 -1796.501806 -1641.818425 -1497.911419 -1362.281567 -1233.600755 -1111.378504 -995.638962 -886.650865 -784.729247 -690.109499 -602.882844 -522.976403 -450.158528 -384.045894 -324.067825 -269.287323 -216.986413 -169.670475 -145.138151 -134.231956 -130.402189 -142.683014 -131.503412 -126.745973 -118.967666 -115.001518 -112.654551 -96.787462 -95.832792 -94.926661 -79.563904 -79.309670 -78.992851 -65.333289 -65.281017 -65.159140 -53.455457 -53.459816 -53.402304 -43.537301 -43.555923 -43.521082 -35.284112 -35.304523 -35.279164 -28.449529 -28.468235 -28.448019 -22.819943 -22.836158 -22.819483 -18.208628 -18.222366 -18.208487 -14.452695 -14.464194 -14.452652 -11.410860 -11.420405 -11.410847 -8.961419 -8.969284 -8.961415 -7.000294 -7.006733 -7.000293 -5.439140 -5.444377 -5.439139 -4.203517 -4.207749 -4.203517 -3.231163 -3.234562 -3.231163 -2.470381 -2.473093 -2.470381 -1.878555 -1.880706 -1.878555 -1.420807 -1.422502 -1.420807 -1.068795 -1.070122 -1.068795 -0.799646 -0.800679 -0.799646 -0.595036 -0.595835 -0.595036 -0.440380 -0.440994 -0.440380 -0.324152 -0.324621 -0.324152 -0.237303 -0.237659 -0.237303 -0.172778 -0.173047 -0.172778 -0.125113 -0.125315 -0.125113 -0.090104 -0.090254 -0.090104 -0.064537 -0.064649 -0.064537 -0.045973 -0.046055 -0.045973 -0.032569 -0.032629 -0.032569 -0.022947 -0.022991 -0.022947 -0.016079 -0.016111 -0.016079 -0.011205 -0.011227 -0.011205 -0.007764 -0.007780 -0.007764 -0.005350 -0.005361 -0.005350 -0.003664 -0.003672 -0.003664 -0.002493 -0.002499 -0.002493 -0.001683 -0.001687 -0.001683 -0.001125 -0.001127 -0.001125 -0.000739 -0.000740 -0.000739 -0.000470 -0.000471 -0.000470 -0.000279 -0.000280 -0.000279 -0.000138 -0.000139 -0.000138 -0.000027 -0.000027 -0.000027 0.000070 0.000070 0.000070 0.000163 0.000163 0.000163 0.000260 0.000260 0.000260 0.000363 0.000363 0.000363 0.000472 0.000472 0.000472 0.000579 0.000579 0.000579 0.000666 0.000665 0.000666 0.000694 0.000692 0.000694 0.000601 0.000598 0.000601 0.000283 0.000277 0.000283 -0.000426 -0.000435 -0.000426 -0.001778 -0.001794 -0.001778 -0.004156 -0.004181 -0.004156 -0.008120 -0.008157 -0.008120 -0.014478 -0.014534 -0.014478 -0.024382 -0.024463 -0.024382 -0.039441 -0.039558 -0.039441 -0.061882 -0.062047 -0.061882 -0.094735 -0.094965 -0.094735 -0.142081 -0.142397 -0.142081 -0.209346 -0.209777 -0.209346 -0.303667 -0.304246 -0.303667 -0.434318 -0.435088 -0.434318 -0.613230 -0.614245 -0.613230 -0.855590 -0.856911 -0.855590 -1.180525 -1.182230 -1.180525 -1.611893 -1.614073 -1.611893 -2.179161 -2.181922 -2.179161 -2.918372 -2.921838 -2.918372 -3.873208 -3.877521 -3.873208 -5.096121 -5.101443 -5.096121 -6.649532 -6.656045 -6.649532 -8.607079 -8.614986 -8.607079 -11.054885 -11.064410 -11.054885 -14.092835 -14.104223 -14.092834 -17.835825 -17.849340 -17.835825 -22.414960 -22.430884 -22.414959 -27.978658 -27.997291 -27.978657 -34.693638 -34.715292 -34.693637 -42.745736 -42.770734 -42.745732 -52.340515 -52.369183 -52.340501 -63.703609 -63.736267 -63.703562 -77.080756 -77.117695 -77.080604 -92.737467 -92.778883 -92.736971 -110.958313 -111.004110 -110.956695 -132.045952 -132.095127 -132.040681 -156.320482 -156.369121 -156.303305 -184.121185 -184.155938 -184.065216 -215.817729 -215.794276 -215.635380 -251.855025 -251.625040 -251.260931 -292.908667 -291.964142 -290.974797 -340.633801 -336.986570 -334.307306 -397.037250 -383.364579 -377.043418 -428.611385 -405.947836 -395.800592 13508.856078 14593.391753 14968.847406 13629.257844 16529.234579 17202.506978 17697.570273 21048.781782 18638.532138 15067.376622 17580.046488 13051.464810 15625.055735 15264.580093 18739.322814 11537.898940 6875.887511 3008.060577 -1847.945804 -2571.555062 -2871.072516 -3061.053720 -3196.116038 -3290.884508 -3352.513014 -3385.588726 -3393.328772 -3378.122667 -3341.895787 -3286.370451 -3213.239213 -3124.261187 -3021.296450 -2906.295830 -2781.262721 -2648.201123 -2509.060976 -2365.688650 -2219.787555 -2072.891283 -1926.349563 -1781.325725 -1638.803293 -1499.598779 -1364.377660 -1233.670413 -1107.884655 -987.305084 -872.057122 -761.949878 -655.995960 -548.721116 -456.295098 -417.377856 -400.567578 -394.173833 13003.382654 13482.329344 13456.541863 14358.165315 16284.764040 14786.115179 12783.504383 14135.887183 13521.335689 11274.801229 10927.114173 8839.289459 8350.579714 8188.261514 6429.604370 3875.449874 1483.747407 -706.465903 -2032.446296 -2588.556601 -2871.620849 -3060.444495 -3195.510022 -3290.360488 -3352.055761 -3385.180643 -3392.957824 -3377.782136 -3341.583030 -3286.085521 -3212.983590 -3124.036767 -3021.104825 -2906.137852 -2781.138303 -2648.109224 -2508.999709 -2365.655473 -2219.779497 -2072.905167 -1926.382208 -1781.374120 -1638.864752 -1499.671187 -1364.460097 -1233.765155 -1108.003738 -987.491975 -872.458471 -763.063957 -659.473731 -562.531658 -480.554779 -433.336481 -410.353503 -401.513776 12536.697076 12731.005859 12936.912811 13142.682554 13353.711891 13065.362605 12606.083696 12222.279809 11173.997549 9799.845310 8395.108485 7079.744954 6052.725669 4946.558063 3404.098204 1585.343515 -78.340180 -1375.047543 -2167.667859 -2605.400883 -2874.354141 -3061.420959 -3196.162080 -3290.891217 -3352.514134 -3385.588932 -3393.328812 -3378.122675 -3341.895788 -3286.370451 -3213.239214 -3124.261187 -3021.296450 -2906.295830 -2781.262721 -2648.201123 -2509.060977 -2365.688651 -2219.787559 -2072.891297 -1926.349609 -1781.325877 -1638.803789 -1499.600401 -1364.382964 -1233.687754 -1107.941343 -987.490387 -872.662588 -763.931581 -662.401604 -571.157267 -496.671646 -446.357753 -418.484016 -407.147280 16344.602050 15709.901450 13173.026071 9848.286174 11330.374440 13590.614788 11786.658538 8999.075450 10124.118698 6899.631273 4248.184228 505.470108 -666.238551 276.744853 2897.792937 2913.617953 -3255.133082 -5182.161800 -4869.961776 -5025.630794 -5182.221602 -5262.283034 -5237.089741 -5107.567319 -4893.678900 -4627.122548 -4346.921469 -4095.019243 16457.200366 15844.880547 14347.170761 16165.758802 15140.203395 14948.509660 14827.368740 15763.111760 11404.183550 16754.882660 13683.968370 14239.096158 14206.391009 15302.439772 16402.661984 13011.289283 11858.797914 15501.392529 15422.477759 14860.520939 15652.305491 13350.682893 10216.745374 15423.862417 7458.156678 14934.303198 3718.434311 3909.333184 16683.356535 16134.852685 16073.836622 8935.195493 10541.556816 13970.925860 15418.983996 12309.345325 16923.840849 12523.464874 11951.272010 11033.153679 14906.413002 15813.691323 12564.027583 15518.543387 8900.236712 15262.565744 13350.827318 13024.339061 10538.013149 12708.375992 14706.651572 15851.079471 15132.043206 10575.459017 9878.159572 12210.730982 17120.493004 17000.851235 15658.288625 11721.244353 14781.358043 7288.736842 11975.277794 13767.242739 18233.577419 3882.639617 1529.179817 7883.259540 14891.732068 9371.380435 13732.901000 13542.173475 8227.792029 10098.627110 15267.892051 13206.794641 11360.158596 7392.717332 10441.868603 7541.428113 10638.637287 8048.667745 17611.477012 5625.577602 17508.790643 17319.975980 15193.660083 18871.459931 5342.641751 13784.347853 9792.511450 3569.217530 12659.015460 6660.500562 12077.121429 16495.091305 13268.542201 15039.737501 2726.067077 9297.078016 14850.057596 7917.176076 5058.860684 13336.410460 2501.697668 7595.950900 14267.025017 6201.342050 3359.532099 4289.000121 2175.466286 7925.508507 17808.285238 17047.766349 14264.562584 16434.132513 13480.255962 15682.177098 18499.285855 11092.875373 13601.096742 8298.518059 7400.161460 12818.554750 7876.034779 7719.206752 4344.881744 17481.880540 8921.276161 7978.712150 12979.537818 10251.634892 6589.571809 11803.051704 10922.127153 10435.160618 9420.793103 5867.646163 3865.934750 4442.210191 17905.732610 17437.623024 17217.083905 11612.898888 12875.142115 12380.948681 3724.049542 6444.729981 10110.838186 8275.946554 10751.732117 13092.159361 14578.866545 14601.401080 14245.861851 7391.058364 4059.941573 11153.766707 9543.105476 11657.327827 824.119117 10740.716342 10660.868487 6925.200457 6447.171255 9209.296338 4860.809224 2441.521215 17622.350834 17375.847669 17754.587240 15734.283846 16363.900261 12784.231815 15507.509081 12456.483108 15603.856444 11805.419692 11645.730768 14787.357677 6120.242091 4552.667879 12708.543591 11518.081507 7178.821539 9831.848060 2908.415569 6772.695816 7584.342284 9048.565998 5222.473700 2847.904251 5322.065166 3902.455868 3403.920023 770.601273 17214.192639 16118.042457 14920.778903 15986.140815 15872.694244 14568.635701 14012.535950 15404.884982 10333.383805 6815.656727 11042.567909 13232.490638 13800.341491 17922.363323 6061.476532 7261.234308 7871.421825 3950.809861 9065.806512 3071.351348 8225.278522 7481.451270 3125.176447 4306.250096 5307.582210 4999.667880 4406.560237 2023.081168 17033.825763 14669.823263 12201.797780 16751.557337 16738.790993 13484.863934 13481.770772 12011.996130 6856.497269 9669.683914 1279.904639 5374.717833 2558.696826 6196.023425 4275.457694 9879.289034 7446.363325 4124.461815 9931.249937 4693.651730 10043.529380 10380.423711 6792.834483 4363.336004 8073.269831 5682.141551 1632.672835 2640.724826 17292.533213 16561.124023 15063.353293 15522.025128 14455.288322 15749.834377 15376.659764 16826.332107 8069.290646 14837.271788 5368.108437 14937.461605 6860.115123 10236.581046 11062.028512 4453.545746 3827.171710 4054.060842 11739.043769 7498.595085 9781.826529 6014.574398 5580.463469 3318.975665 6677.693021 2274.744488 1677.841433 2820.261378 17622.830905 17167.593886 15810.072161 14748.862037 10523.946377 16833.285226 14816.171700 10538.081760 5522.628717 9960.910825 6946.376366 8616.836689 11427.546910 8736.266209 9789.746326 14844.871268 13873.287607 8599.375243 4007.304847 4948.760684 3249.399171 2763.387647 6880.855958 7720.373123 5693.903536 6322.070728 2798.999336 1987.751227 17611.954693 17170.295662 17218.604052 13819.039091 11846.611338 13790.429466 12214.186362 10149.052821 11973.659728 10928.524276 9356.976263 5449.736611 11285.635618 6664.384037 10835.308953 9527.174393 7598.000445 3762.555584 9393.134578 10817.599364 8656.457062 9224.487820 6106.894162 5590.267035 10104.158888 11131.967235 3676.026484 5109.328884 17506.910935 17306.296758 18573.428157 14478.954376 13689.590693 8215.405849 18159.946809 15203.177422 7156.357008 12427.278662 15936.512415 3652.435306 10274.775826 4402.283362 4526.714923 2452.927049 3677.559869 3851.972516 13000.919735 7187.626910 9241.817458 728.706801 12882.061100 7393.132029 6254.884119 13351.390485 3087.390962 1750.302037 17600.950821 18303.186553 20759.386389 13371.827251 16341.394836 15800.474343 10917.336651 17076.858524 5371.079693 12989.162033 12032.026388 6413.235487 7891.504907 538.086245 3508.150363 888.966749 2953.623785 2885.938183 4650.510072 1716.122228 3636.935134 3640.054215 3574.482467 2863.281380 1544.039063 2925.959561 2181.197964 2683.692259 17906.013829 19753.385639 20509.670003 17200.335033 15233.744442 15277.566742 15072.939888 11842.614036 6774.840753 8623.253331 7975.230240 7312.764378 6558.204138 18296.468553 20038.937966 18197.566670 16413.061669 16118.260154 11121.859762 13643.026694 8583.837165 14414.952002 6187.216057 4798.617821 4331.208792 1329.842456 18526.892104 19335.270834 18556.969734 13150.514053 18771.393440 11748.576141 9479.282968 10206.332044 1984.491320 4409.044544 5790.809116 3074.813021 1298.365147 18265.103875 18854.016548 21246.910524 12346.083355 13723.783069 5819.081906 9573.430572 10489.285964 6803.675653 5047.675581 12057.741926 10444.477339 990.914248 18068.524844 16845.605739 15809.092545 16610.825228 6248.073440 6902.207455 6888.051104 19185.377519 9250.264797 5665.756551 1005.224650 2193.692990 282.859552 18151.807024 18028.644148 16098.092828 17531.298395 14577.009268 11097.031436 12414.522914 7659.117577 5578.212900 2992.033187 7111.461066 4558.944500 2143.618990 17953.281821 17250.949448 13716.158760 16682.892629 15456.825302 15957.966555 14739.812319 10849.736755 5645.621125 11491.314397 2814.965527 9352.699106 4328.479711 17632.296828 17683.934086 18366.317706 18481.749888 13354.490673 12840.729976 13585.712170 1402.426893 8556.041273 2492.353724 4264.625471 3395.590303 707.567837 17505.585842 15929.184829 16142.130823 16422.520232 17547.713948 16079.262410 12320.688623 3856.408033 16232.035174 3571.731637 7927.726797 4110.499861 4684.096522 17888.530949 16680.343150 17736.517292 13043.504969 16814.496325 12075.449389 12904.346003 14609.636642 5557.116854 6365.647956 7861.016935 6980.865616 4312.411003 18566.688205 17677.732439 16850.148863 15857.456296 15147.673002 13215.066589 14571.389985 3221.797197 2137.269764 2860.754173 8853.986704 6776.084176 7585.520117 18955.378713 18772.722753 17358.744918 15445.325885 12353.749465 12674.630451 6258.399595 9680.570492 9155.627765 11344.574258 3530.905197 8318.891265 5145.572122 18835.361508 18968.001754 19766.129569 18763.386849 15461.413923 10747.075739 9754.986414 11456.896904 10676.066034 8169.442172 14440.245287 5486.159492 3766.066161 18745.834657 18559.719204 19171.147367 9822.686539 11721.075980 10861.424016 8759.951060 5872.844104 4585.860180 15522.105800 6002.272437 6771.881125 3374.120246 18979.193878 18513.278757 19182.888100 13752.893050 13782.083019 12813.675990 9580.774761 16089.216032 4730.300089 10902.599452 8030.691412 8763.692956 5537.971491 19219.052278 19025.711569 17906.219107 13135.648338 14540.813481 15353.910437 14443.083431 12785.069663 10174.564911 3649.087349 7705.746937 10418.604847 1955.283887 19258.491366 20082.536169 18050.992167 13960.388250 9231.662711 6966.432263 3856.962389 12625.511260 5006.588899 12712.057786 8698.940832 5977.225557 2717.074706 19035.630272 19720.347400 18573.895456 14947.911562 15949.900426 12647.172453 8578.806192 15745.107606 13284.651052 12083.715160 6200.516264 6688.088200 3763.790157 19004.224228 17971.814863 15916.425886 15520.761552 12168.824463 14495.064296 12223.358487 8927.014715 11195.420376 6863.513373 10299.034401 9904.040165 4664.358232 19344.427328 20402.251736 18985.553961 11266.419086 16406.375529 7818.527738 5973.716752 10839.520971 5863.584678 14378.280106 6984.706554 3639.772123 3214.369178 19476.663225 20785.860845 18839.667433 15544.076127 17252.222286 9717.532036 8192.005435 10550.186709 10847.883021 4676.518709 4118.742012 8923.264203 3199.137897 19398.617055 19601.950610 17395.517704 17147.990480 13568.687760 15998.194017 8628.122044 12856.286137 7313.337818 8799.612207 6608.265267 5642.254238 2098.190398 18981.007297 19924.449009 19445.804130 17698.784397 16243.086360 12093.672169 12814.346544 12352.828698 9042.677609 10456.022720 7083.079709 4590.762223 3947.668502 18543.327436 18949.594421 19251.781851 16678.144630 16626.254892 15526.455859 13251.141347 14535.607908 15038.292966 9520.563833 6591.127466 5863.020469 1810.510774 18697.657615 19993.879268 23313.407069 11738.269379 19213.340132 15275.201385 12081.997364 15181.904254 15741.952795 6410.203869 2226.065495 10696.311980 2089.518735 18826.477567 19100.178188 18454.759071 17054.161944 14452.258585 8721.167940 16527.882693 12225.619947 12045.513935 4344.608853 8317.747240 6885.192546 12983.113667 18573.692454 18086.134894 15656.876645 9346.936793 19201.562128 14790.645595 7608.220126 10795.682035 9394.524079 9991.726551 6838.710687 5015.127767 7122.574309 18406.443038 17053.595835 14238.258552 11766.239081 12077.524425 8093.658811 9827.943491 7523.442029 8909.107016 8577.104041 4490.062868 12305.469482 430.148093 18683.381078 16700.872031 16812.630878 14691.262322 17630.331141 12884.334797 6263.238814 16052.121369 12500.613901 6689.839207 6870.300553 4570.057555 3395.535673 19357.679576 18977.017035 18313.806858 18583.110658 15100.118112 15778.863630 14514.020759 14041.765797 14124.975613 13447.381117 7345.829635 852.490549 2317.196846 19729.917430 22093.365769 22107.770378 13085.799939 16633.143439 16601.365993 14953.287181 11347.123841 8195.871426 3747.368658 7163.848419 3736.405301 6143.316814 19520.410635 21147.049770 19160.278076 14153.776295 17251.716776 12534.721557 14319.715236 8633.686481 2755.876736 6527.533406 2903.547136 6629.685325 2479.542584 19571.362733 18876.424612 14806.130921 14888.829619 18982.672311 7602.480272 4623.435350 354.918973 3985.991658 5214.650937 10055.898795 7189.523772 2073.366108 19498.579360 18192.211544 15774.583507 18652.146929 23114.756771 14439.911682 13640.583055 15322.799310 12946.077867 8624.000451 3717.048453 2041.628049 2366.687397 19313.082165 18391.865797 17232.514672 14260.488802 14375.591063 17754.876202 11153.190735 12680.804674 6173.102202 5035.590508 5737.368547 10143.380065 7910.362177 19298.699047 18704.427096 21465.376104 17230.110339 9500.297392 17168.091672 16518.544227 10948.239905 9358.684754 6128.950104 8695.491992 2376.542165 4700.190982 19461.414218 18138.571516 14661.885349 17240.564165 16460.565854 15670.171679 12857.779240 5319.207672 7561.865880 13275.638317 7694.768723 3905.118945 6828.704258 19458.370166 18070.545150 11936.921735 17859.714763 18025.219589 13438.403565 15211.466993 8481.734177 8622.914739 6919.299619 11175.000119 10515.042443 5708.511495 19054.656294 18709.744383 19552.698739 17549.301972 15271.728666 17631.817446 12437.620298 15972.217746 18370.786051 5078.379731 10912.169477 5918.519512 2700.324263 19125.761780 19486.799086 24481.576868 17036.058535 14734.765050 18006.074500 19680.626009 13015.860185 4636.324096 10416.465276 8180.712430 11552.489565 4917.479358 20150.515376 20223.849265 22928.956689 16079.139415 17460.012632 15139.527142 16413.653856 12437.051898 8449.767864 11411.435671 8104.904543 8540.491077 8078.290508 21150.439679 20207.098513 16865.090343 20358.233185 19071.051462 15169.370080 13610.211917 7923.851428 15862.247834 12658.533757 7880.649137 4952.517544 2139.365722 21597.033080 21166.692149 19254.916786 16516.690383 19228.487258 18217.057017 15213.574378 13384.321154 12448.935936 11308.161617 12841.311906 16690.328913 6666.118625 21483.162582 21463.226936 20274.695246 21605.237310 13489.761852 2662.750706 15249.061100 11433.262599 10545.605178 10387.087240 6888.908372 4733.469695 629.367678 21240.416759 21613.921554 20110.946787 17840.452210 16447.908703 15057.009868 13134.270401 16959.643726 10713.225289 5731.273471 9676.156866 10269.260185 2619.956779 21350.842096 21162.223455 20265.522577 15670.266677 19245.692055 14166.236157 12394.732802 10778.899481 7413.288160 14484.397162 12274.692770 3771.670474 9851.431330 21327.689505 18916.098777 15182.668127 17065.705861 16794.525735 14721.584591 13659.709736 13257.104266 7902.494622 5601.868157 9678.519484 4655.577549 7798.180444 20931.661361 19075.665811 18295.015576 16162.130963 14706.688305 17616.372811 10962.313176 12604.189360 10460.003510 15621.378894 7445.051711 15990.829690 5384.294319 20557.693806 20823.158467 21437.414656 19959.866076 15112.662194 16217.026554 13555.871886 8824.335027 10136.878038 10107.958028 7796.990319 6474.697586 2407.087904 20407.363529 21406.414886 20957.709626 20211.470605 19171.044096 16925.274665 14641.781084 16701.014195 14181.755620 15547.843015 19790.364635 3995.126983 751.744871 20412.027464 19785.942981 21216.315959 16960.473497 16465.572919 19297.767786 6792.918246 11724.517610 12270.471637 5972.559233 9981.778797 7409.587167 4525.179211 20625.829037 18858.620001 18321.703326 22169.417140 16635.651522 17901.401432 11801.739143 11478.408734 9647.252699 9422.307043 7122.815018 11450.791457 3012.833859 21068.789623 20474.837536 20314.591558 16981.131996 21762.709262 5544.968723 14798.762320 12966.163878 17989.741734 9074.322712 11655.744356 9527.171006 3873.711669 21449.271131 20119.357670 18849.819194 19753.537416 18438.203250 16937.681849 8175.211687 16197.572274 17757.763272 10132.933924 13114.107248 11137.813400 4066.425405 21479.131085 19881.889144 18037.982516 20733.713288 19444.517089 13381.186374 15666.851384 11433.375103 17695.590814 11775.705514 7072.108108 13377.088476 6965.753983 21127.592997 22050.835811 20948.646368 23367.634192 20606.652328 14684.046035 15087.091112 19140.557671 18951.393947 11905.115450 6371.321279 3618.536564 4186.446288 20452.292103 21167.788476 22048.987301 20378.956657 14112.904008 19993.239582 8108.453734 12896.545774 16253.784095 6738.013244 7923.659079 7336.318804 9053.614473 20282.666443 19569.748311 21379.115931 20587.653277 16435.499773 16727.885100 21800.259672 18157.764534 14777.180422 16839.100599 13528.339064 12590.289515 7210.979994 20780.292189 21142.539700 23415.469767 18597.202874 14848.620519 12802.606013 13427.892585 16729.977036 13623.131677 11681.124290 4335.367002 7431.034916 6370.361188 21342.757853 22453.126208 23329.035380 17114.546924 18677.466229 17239.016041 18888.352519 16967.305682 16120.531047 14958.274727 11096.572144 9450.414119 5093.586599 21260.028508 22602.260528 23526.631342 21126.494033 15708.958067 17365.982605 16447.497430 11436.558817 15640.882651 6300.391951 7201.591921 12179.162107 4863.047261 21162.880024 20598.421101 21627.705640 14319.160897 18353.112546 16647.088804 19926.298147 8277.209279 19577.779389 15377.346428 14715.595363 1321.021332 3426.762467 21018.164541 21476.781590 22600.869252 25118.697939 14040.828561 14548.609402 15794.796438 13769.235768 18123.889062 19547.560363 7102.137509 7890.525660 12605.206735 20588.037523 19029.609667 16100.542433 15564.486408 19087.364866 18481.826596 16225.562072 20731.777167 12279.935179 9060.621239 10619.306619 5073.840180 5855.894136 20255.721894 20411.898046 20575.149025 21072.159283 17323.467283 14966.985969 11166.076683 14443.599073 9301.723364 15698.591368 8519.888645 6381.440262 11813.319125 19754.526561 20778.523947 21305.967572 17864.359793 16338.252415 15846.728974 17885.798419 3975.639002 15273.021038 15953.279458 10158.762712 4521.900402 -300.259144 19287.638717 18835.603557 20139.844349 20832.149283 17570.829148 17398.280134 22496.341309 17864.826254 8357.167234 13961.616845 19933.167642 5968.631481 6099.779279 18953.913136 18998.316413 21836.932742 18338.615535 19376.536271 15392.386016 19739.086081 16253.524402 7161.948896 17181.394038 16333.912554 8407.994279 4015.265100 18762.889704 21469.442059 24856.834129 16270.878882 12194.516766 19298.042180 21816.263371 10286.340469 16034.055520 13924.321204 10011.784566 9410.461259 3949.679498 18572.065464 21362.927645 21268.124425 20112.309318 24605.526206 15068.801809 19027.945991 16273.791256 19842.988821 18200.911615 12394.631434 9521.864241 7984.343228 18055.484722 18401.962559 18571.006097 17878.635703 13654.680218 13678.932260 21858.574035 13102.018597 17364.023203 17627.322751 5583.437717 13674.362467 795.350093 17976.178301 17996.347118 19333.307750 21692.973876 15900.962093 14972.184552 15987.121416 17118.017254 21999.172398 17631.559996 12218.957820 5284.442043 9055.706470 18140.635118 18908.438311 16534.937374 16795.621982 16465.654289 10584.311474 20161.945965 16742.900755 24381.020104 10815.292928 16702.978380 14768.537903 3646.795609 18233.524664 20457.288943 20248.284841 20674.188847 26186.841343 21537.535834 20772.965897 18355.651808 14311.128999 16673.976945 9732.567379 12822.241148 6468.204692 18170.994951 16462.995502 15432.000569 23373.583709 13710.346307 8865.288345 21216.780331 12113.078630 18193.588904 9028.947012 6287.857267 14928.885436 5333.134778 17951.909925 17795.776273 19706.078515 17858.603318 16269.998040 16343.999275 15763.224133 15723.393547 8976.657359 18958.666520 17967.866488 10501.744631 5413.025808 17211.129654 18636.391067 22975.606849 18263.559694 22020.593291 17429.069830 16102.887314 16783.651605 13841.514937 15738.402558 13756.551360 6341.673946 7802.620983 16764.756263 19729.151020 23608.258167 21701.516988 19749.036588 14737.732585 15647.156877 14314.926639 11681.628639 17597.183603 15727.897078 16845.679929 8005.241068 16517.403487 16968.447694 17000.153599 20118.099895 16979.669728 21617.225577 15269.163850 21333.508060 17237.874364 9900.328926 8751.427916 7291.384663 4364.299273 16373.276527 16981.305093 15952.987225 12578.982437 16239.767172 20645.454330 15877.181465 9160.279378 17769.213213 19993.236813 16358.477267 5957.116621 10365.815674 16383.842809 18219.507483 20451.488602 21154.942773 14611.612707 13168.097869 14536.053666 15853.215523 14058.141078 15231.559185 9669.672035 11108.206869 7661.839696 16098.446204 17715.419446 19296.515750 14131.788658 18163.323605 18928.229816 16636.248759 16284.708822 17369.096536 5130.468320 18790.469774 16733.672830 16951.092514 15466.521699 16823.259679 19738.428383 16645.608973 20327.313051 20052.437889 22288.737209 15851.270894 15965.023063 13902.966479 12612.138889 17106.519355 2392.801114 14868.091500 15548.327848 17125.141856 19595.563735 20295.153231 21539.195089 22976.310378 20439.678923 18196.511989 22148.914223 21213.877218 22657.850293 16135.178720 14113.597204 15610.839294 17765.246814 19995.028582 19868.717534 19696.369385 22010.530574 20889.768899 19053.646130 18771.066324 21632.950287 19723.358833 19988.926889 13508.856078 14593.391753 14968.847406 15966.956128 17442.838982 22673.772868 24232.473928 22596.760640 20956.207033 21172.747015 16475.559364 23080.369973 20438.397033
</DataArray>
<DataArray type="Float64" Name="Velocity" NumberOfComponents="3" format="ascii">