<VTKFile type="PolyData">
<PolyData>
<Piece NumberOfPoints="2177" NumberOfVerts="2177" NumberOfLines="0" NumberOfStrips="0" NumberOfPolys="0">
<PointData>
<DataArray type="Float64" Name="Pressure" format="ascii">
 15438.291207 15709.043845 15995.834468 15952.895834 15466.520343 14661.552344 13624.719326 12430.668063 11110.256179 9704.452181 8075.509502 6036.902358 3700.153353 1726.591614 665.846746 229.138459 -91.277387 -422.793154 -1044.251309 -2050.251204 -2970.364801 -3499.128558 -3722.885306 -3785.372120 -3763.030316 -3689.523530 -3578.434925 -3432.408436 -3250.552468 -3039.213147 -2812.169000 -2580.925260 -2352.640346 -2131.829578 -1921.435386 -1723.320852 -1538.535743 -1367.511789 -1210.226885 -1066.343455 -935.319684 -816.493492 -709.141372 -612.516054 -525.867850 -448.454861 -379.547136 -318.430461 -264.418897 -216.897830 -175.456852 -140.197568 -112.084580 -92.300083 -80.619555 -75.619732 16253.857534 16934.707131 17834.000813 17991.496205 17381.657215 16608.387404 15625.168497 14548.344020 13234.515257 11931.294261 10394.866632 8230.990290 5378.072815 2715.875136 1666.433050 1795.181892 1089.364888 367.899871 -416.922554 -1989.054187 -3204.754071 -3674.019340 -3806.675550 -3821.554531 -3779.125052 -3699.564102 -3590.671629 -3451.350488 -3267.791142 -3047.198234 -2815.129151 -2581.979618 -2353.096345 -2132.116938 -1921.683046 -1723.561871 -1538.774729 -1367.746142 -1210.453185 -1066.559124 -935.523188 -816.684120 -709.318935 -612.680587 -526.019267 -448.592295 -379.667079 -318.520838 -264.440022 -216.724257 -174.714012 -138.156065 -108.187158 -88.404333 -77.725877 -73.475795 17535.620384 18907.690090 21163.227564 21610.678086 20218.109866 19409.156592 17657.074024 16887.405000 16601.972569 15017.693308 14767.355902 13211.265840 6782.400302 8445.888463 5178.269240 6611.698162 4295.825053 1934.423526 520.232553 -2053.958019 -3647.565639 -3913.357602 -3910.251463 -3864.479324 -3798.093422 -3711.821459 -3608.228708 -3489.528743 -3309.471531 -3059.736542 -2818.481347 -2582.902260 -2353.258153 -2132.022792 -1921.495830 -1723.339766 -1538.541663 -1367.513641 -1210.227464 -1066.343632 -935.319729 -816.493470 -709.141246 -612.515623 -525.866424 -448.450156 -379.531625 -318.379346 -264.250537 -216.342615 -173.644347 -133.889841 -98.759349 -80.791067 -72.801705 -69.922477 -79.350933 -71.224086 -67.696710 -63.333617 -60.473552 -58.737597 -49.041311 -48.352434 -47.691320 -38.483129 -38.300511 -38.070297 -30.156468 -30.118689 -30.031023 -23.522015 -23.524154 -23.483868 -18.238236 -18.249946 -18.226640 -14.050483 -14.063005 -14.046958 -10.752637 -10.763652 -10.751566 -8.173694 -8.182795 -8.173369 -6.171414 -6.178732 -6.171315 -4.628116 -4.633912 -4.628086 -3.447227 -3.451770 -3.447218 -2.550208 -2.553737 -2.550205 -1.873768 -1.876486 -1.873767 -1.367367 -1.369443 -1.367367 -0.991010 -0.992584 -0.991010 -0.713328 -0.714511 -0.713328 -0.509934 -0.510817 -0.509934 -0.362033 -0.362687 -0.362033 -0.255262 -0.255742 -0.255262 -0.178742 -0.179092 -0.178742 -0.124298 -0.124551 -0.124298 -0.085841 -0.086022 -0.085841 -0.058873 -0.059002 -0.058873 -0.040098 -0.040190 -0.040098 -0.027122 -0.027186 -0.027122 -0.018218 -0.018263 -0.018218 -0.012153 -0.012184 -0.012153 -0.008050 -0.008072 -0.008050 -0.005296 -0.005310 -0.005296 -0.003460 -0.003470 -0.003460 -0.002245 -0.002251 -0.002245 -0.001446 -0.001451 -0.001446 -0.000925 -0.000928 -0.000925 -0.000588 -0.000590 -0.000588 -0.000371 -0.000372 -0.000371 -0.000232 -0.000233 -0.000232 -0.000145 -0.000145 -0.000145 -0.000089 -0.000090 -0.000089 -0.000055 -0.000055 -0.000055 -0.000033 -0.000033 -0.000033 -0.000020 -0.000020 -0.000020 -0.000011 -0.000011 -0.000011 -0.000006 -0.000006 -0.000006 -0.000002 -0.000002 -0.000002 0.000002 0.000002 0.000002 0.000006 0.000006 0.000006 0.000012 0.000012 0.000012 0.000021 0.000021 0.000021 0.000034 0.000035 0.000034 0.000056 0.000056 0.000056 0.000090 0.000090 0.000090 0.000142 0.000142 0.000142 0.000221 0.000222 0.000221 0.000340 0.000341 0.000340 0.000516 0.000517 0.000516 0.000770 0.000772 0.000770 0.001132 0.001134 0.001132 0.001635 0.001638 0.001635 0.002319 0.002323 0.002319 0.003223 0.003227 0.003223 0.004376 0.004381 0.004376 0.005784 0.005787 0.005784 0.007396 0.007398 0.007396 0.009067 0.009064 0.009067 0.010484 0.010472 0.010484 0.011066 0.011038 0.011066 0.009817 0.009764 0.009817 0.005121 0.005029 0.005121 -0.005541 -0.005692 -0.005541 -0.025969 -0.026208 -0.025969 -0.061738 -0.062104 -0.061738 -0.120830 -0.121373 -0.120830 -0.214421 -0.215208 -0.214421 -0.357852 -0.358969 -0.357852 -0.571781 -0.573336 -0.571781 -0.883536 -0.885661 -0.883536 -1.328651 -1.331507 -1.328651 -1.952585 -1.956362 -1.952585 -2.812574 -2.817495 -2.812574 -3.979587 -3.985909 -3.979587 -5.540323 -5.548333 -5.540323 -7.599176 -7.609193 -7.599176 -10.280108 -10.292479 -10.280107 -13.728342 -13.743437 -13.728341 -18.111824 -18.130033 -18.111820 -23.622396 -23.644121 -23.622382 -30.476660 -30.502305 -30.476617 -38.916536 -38.946487 -38.916396 -49.209554 -49.244120 -49.209097 -61.648987 -61.688227 -61.647494 -76.554074 -76.597229 -76.549198 -94.271001 -94.314637 -94.255070 -115.176687 -115.208611 -115.124641 -139.692031 -139.671156 -139.522035 -168.327278 -168.115225 -167.772049 -201.832076 -200.953544 -200.020342 -241.890092 -238.492992 -235.948849 -290.763545 -277.986669 -271.949446 -318.897688 -297.531987 -287.899381 11693.574570 11816.749714 11947.021559 11334.479647 12207.127031 9607.376659 7969.154603 8694.135087 6807.777117 6968.035781 6683.383939 6846.547298 3255.369152 -3628.040087 -3800.686427 -3006.521141 -2842.063577 -2929.661854 -3109.384032 -3294.764778 -3450.907646 -3573.544897 -3670.165691 -3747.597020 -3807.246290 -3845.542519 -3856.529850 -3834.647686 -3776.778973 -3683.257277 -3557.852981 -3406.958565 -3238.310213 -3059.619747 -2877.445827 -2696.519571 -2519.589319 -2347.706140 -2180.776244 -2018.179301 -1859.287220 -1703.790378 -1551.815744 -1403.879077 -1260.740421 -1123.230888 -992.098762 -867.893954 -750.873334 -640.839008 -536.705587 -433.050611 -345.042650 -308.312756 -292.445465 -286.313033 11847.692879 12055.593170 12100.029487 11686.773868 11674.174240 10124.277385 8763.758041 9363.588893 8515.790131 7807.687581 6425.923974 4819.564607 2394.676093 -741.113994 -2066.015041 -2470.733726 -2667.166090 -2875.656639 -3093.256896 -3289.901785 -3449.277643 -3572.880195 -3669.805890 -3747.296648 -3806.888900 -3845.082660 -3855.975012 -3834.041395 -3776.181816 -3682.728816 -3557.437729 -3406.678108 -3238.162089 -3059.582134 -2877.485865 -2696.602566 -2519.686313 -2347.798264 -2180.855509 -2018.246563 -1859.348658 -1703.853851 -1551.888050 -1403.964588 -1260.841313 -1123.349500 -992.244618 -868.104886 -751.283201 -641.910569 -539.980649 -446.016988 -367.554088 -322.727169 -300.966680 -292.544909 12009.514501 12073.284332 12181.771472 11945.020834 11413.100988 10660.354553 9897.368503 9429.073518 8477.829263 7292.377735 5951.714141 4380.916405 2462.353587 366.841506 -1176.126338 -2037.526846 -2507.705009 -2823.479246 -3078.307544 -3286.455569 -3448.865055 -3573.044331 -3670.011780 -3747.525803 -3807.203611 -3845.514740 -3856.511192 -3834.634833 -3776.769934 -3683.250841 -3557.848385 -3406.955301 -3238.307921 -3059.618165 -2877.444756 -2696.518864 -2519.588864 -2347.705856 -2180.776074 -2018.179211 -1859.287204 -1703.790484 -1551.816181 -1403.880557 -1260.745298 -1123.246886 -992.151196 -868.065761 -751.435982 -642.684652 -542.682784 -454.050527 -382.503217 -334.551261 -308.100262 -297.336046 18219.302272 19588.812327 22173.472001 22938.397677 21716.406118 20965.045141 18718.248542 17614.844413 18603.470848 14836.779948 17675.077737 17491.005782 5216.809043 15875.892644 6042.656712 19878.012553 18567.470630 8084.537491 937.330226 -2139.224279 -3823.541450 -3992.504422 -3940.542018 -3876.723209 -3803.599232 -3715.525886 -3614.507666 -3509.798979 19529.693498 21527.229994 25142.526367 20858.737479 25565.178561 25128.261295 27270.654784 26259.054298 22260.074164 19493.120889 19643.905149 22784.333844 23529.808115 22824.390100 21089.153485 23418.509147 23211.685068 21123.677493 23544.996245 27771.710041 20795.856545 24432.009629 24681.667058 26319.904808 22484.001394 22706.097442 14819.690778 11391.188103 20339.725817 21941.420126 26413.930630 19319.211689 19354.096308 19857.448327 21607.923467 17651.619264 24138.324520 21255.595978 23709.795698 22065.314050 23569.071790 28493.661766 24461.123505 25246.254704 19495.129912 24154.077787 23956.895587 21113.121538 24587.958316 27451.681422 28622.203960 23149.164646 24839.107383 19307.658165 18688.019612 19506.879587 20230.261418 20639.504719 24713.194356 20710.715512 25738.261587 18102.662509 20951.424776 22662.341433 27016.955830 16439.022974 9438.143906 14285.208784 22025.067968 15894.340617 19354.961750 25195.023503 19286.469346 21379.432279 20052.165207 24760.274660 21460.553061 12870.023318 22089.250520 21603.711702 22959.013544 15872.767728 27274.404030 -378.264449 19964.603836 21265.788230 25836.301210 23725.460478 10513.672398 22092.498091 18834.234774 9211.737105 17061.111406 14389.976209 20823.880182 21456.287090 21883.759937 25350.409600 -1473.209399 13905.176226 19030.897573 21513.437762 12565.732251 18947.114657 13869.678771 20611.611395 22168.910533 7619.083501 10379.745174 4446.570006 9455.720433 12558.501455 20081.972584 23380.584344 29456.672005 21527.859149 22624.142510 19666.541753 18871.422374 12233.741246 20165.415299 17282.190878 16214.997882 21110.376953 15870.563300 17875.560511 14598.592048 25608.590371 19636.535537 16961.773043 22692.954319 21454.027219 4925.708178 18189.414654 20155.875246 21738.745813 19883.683304 3032.788655 11254.457932 12036.428247 20387.467150 22895.293269 26781.417833 19327.313074 25619.374773 23223.456820 13484.562799 12222.909218 15117.430941 20148.188401 16012.509179 20088.400707 20191.725054 20099.476552 17728.748339 19986.529843 10450.700222 17784.324142 15100.811329 17528.585402 4081.587551 12677.640847 20369.150052 10556.698592 13704.764616 17187.936908 4200.023119 1748.284519 20662.838874 22574.913900 26039.063844 21798.481736 24050.921313 24835.097574 20847.261333 19479.694831 20889.236891 17964.143851 14646.912959 16232.433775 7521.245724 15412.484316 16723.059667 18279.212687 19393.147088 16195.722448 8655.653037 13524.696901 14617.821005 13014.756892 10832.641675 2153.949550 14310.833109 9756.816838 4543.439099 4292.974513 21169.890251 23913.205413 24354.597656 22736.393278 19749.375134 16718.835866 17015.314158 23893.783814 16386.842143 9519.915161 13225.642900 24360.302583 17420.416377 19556.595830 12177.773185 7776.942668 15980.922694 13372.130530 16383.888932 10201.997199 18110.151321 16433.047540 1631.190274 10800.141961 6456.510636 12749.885649 13204.497987 5114.163129 21612.343391 24022.066174 24765.699472 21513.977297 20214.693877 16944.516961 20168.329595 23098.290931 12757.481800 10731.702013 6364.038942 12071.635376 6884.626409 5632.168205 5974.672936 9679.069907 6661.003898 5678.031864 7528.273273 5839.120667 10252.236827 21022.296108 14170.023336 11822.631565 17466.569408 8296.190754 10157.556896 -3095.633954 21737.543098 24306.110086 27653.527827 26482.955242 19397.290019 23147.981392 23131.041352 20385.755427 12449.778201 19371.222703 10110.249640 15765.367166 5020.566482 11735.546751 20468.557760 7103.153858 6448.527538 11331.608858 14324.937347 9847.956282 11738.783650 10893.995515 6946.589155 9258.393713 15201.481152 9009.328763 13950.905405 60.315763 21685.642071 24037.716374 27505.223310 24422.221856 16427.902738 17037.548337 25855.149761 13247.067662 9130.452479 8101.770846 8999.465348 13661.161180 15780.384179 14349.510292 10570.879664 20162.666053 13977.691280 13078.726729 1525.722238 8101.052291 7959.837259 5814.056544 10828.820747 11396.147688 6883.343013 10380.538393 5098.292868 11195.801485 21559.914336 23715.667710 27954.960785 15334.604413 19950.468191 17198.649760 17979.284985 14652.452251 15730.339085 8980.421476 7513.739650 4922.115022 12890.265181 4081.234426 10893.950543 16804.091202 9395.206470 -499.857105 10906.010266 7823.633261 9631.629779 5816.724501 9569.477320 12117.163262 10731.923338 14281.181884 5966.700231 16685.781090 21543.953637 23167.540597 24902.477108 18695.742778 19186.640987 9524.145067 21662.089216 23631.485132 9781.512732 20210.693340 17298.279053 3706.325857 13229.946141 2957.791639 5257.328180 3277.152696 8709.306502 2379.002941 11079.525536 9603.554521 12870.271575 8049.178662 21065.172625 4276.151354 8252.693644 15042.507058 7535.500262 1647.543335 21301.424426 20878.550460 19993.307922 19907.002864 19606.223354 26470.590735 14983.023178 23324.742532 3260.103861 15060.730253 14211.651007 5506.828791 11821.775557 1914.261194 3677.808802 1489.977403 2710.915878 1129.688443 1374.399680 80.340460 255.881811 282.618613 7701.482888 4384.870418 4895.167587 6544.998574 3899.322093 -4678.036387 21016.143092 22782.827365 24061.507135 19310.913877 22498.741716 27019.891505 14760.369181 10993.602515 7755.267132 4458.434384 9625.414146 4577.820911 5251.467510 21076.459266 23161.400590 26475.062496 24667.444827 21158.848863 12249.947450 21499.477658 9264.493823 8879.545855 11676.370446 4322.312271 1787.421715 1317.801244 21100.082924 22306.514195 24558.634872 16347.473682 19840.338038 19180.921208 11525.848097 12212.297994 3747.130005 5569.032974 2488.078095 3524.316820 1073.860239 21282.573803 22840.193857 24401.415885 21147.072386 16157.178860 8437.561752 11185.821584 13262.714780 4972.616921 1998.456224 8811.992143 11572.970265 2615.963519 21740.863909 22534.048543 23573.809688 21775.165445 7839.779461 10409.816584 6430.987277 22263.570951 11182.407638 5335.138229 3489.397584 1630.638911 1614.215344 21750.240494 23237.283021 25397.589909 24267.761837 14612.839889 16607.361207 18573.444536 9991.022629 11027.942344 5068.614376 4527.312104 4244.976352 3925.265126 21380.160489 22236.271843 24852.324664 21189.826756 21821.012628 20868.450976 17201.748316 9125.152643 6761.172327 12307.101711 8856.402979 8689.929361 885.593107 21157.181201 21874.293856 24088.238991 20873.120814 20864.456200 17473.145182 17767.987594 3358.458124 11116.688320 7375.168754 4688.119260 1619.913892 3459.629365 20986.349922 22292.952836 21916.195940 20307.026131 20084.297482 18122.389867 12818.464801 9576.165090 10196.079445 4404.228543 6855.632267 -1001.963206 1294.854276 20947.057218 23470.076812 23609.783536 15924.761922 24101.864649 11812.980184 8023.365605 14524.436407 10463.554913 6921.440722 9501.673150 5408.674665 1618.714408 21098.436921 21502.047704 19375.725746 23046.617819 23656.228726 19838.113665 19941.845052 6464.031068 2560.988062 6195.938227 9131.400257 8879.808540 4676.551651 21363.183598 20823.115527 16459.179104 15740.863809 15692.633106 23374.656920 8289.708997 13493.247019 11079.971771 10117.356261 -42.128430 4151.361886 1172.674585 21522.728045 21962.848113 19669.180432 22947.280488 19366.744663 19789.090998 11816.018742 11844.469422 11014.370570 4951.738841 13747.170029 6379.777495 3032.450845 21253.748886 21589.948714 22278.574045 19931.943865 10672.863848 12944.277484 9766.976792 5686.030708 6614.951358 16970.666225 5658.132570 5142.007497 1604.509905 20976.751460 22453.810327 28828.779447 15518.759301 17962.717727 19675.589168 9382.536272 19803.561052 6736.296330 5958.738311 4642.175804 11082.472522 4405.188658 21175.115605 22007.194526 24942.449442 15080.287009 17072.153909 18133.324544 15884.073284 13608.439223 9760.280588 4232.529900 3014.532295 7659.410584 2093.901152 21610.305570 22220.238606 23114.743387 10894.943403 9573.251720 12505.342838 5557.145135 15261.937532 6949.690722 14332.706736 5315.528986 3603.685170 1793.630145 21992.327724 23081.732319 22618.656186 20720.307310 14381.311453 13290.478436 4566.369029 20387.186267 11030.001918 10313.516709 4360.872353 5726.557264 2238.550756 22060.039518 21991.060902 21342.040132 17332.877420 10164.891400 13849.273783 13012.214715 7675.451763 5780.960046 8915.395328 8659.352792 10434.663142 364.454020 21889.357323 22571.392292 20644.412394 19407.616858 21041.431358 11008.202763 3437.554051 7401.672448 3401.510186 15871.800684 6108.977869 2648.882307 1399.267267 21726.950823 22443.283827 21839.856180 18301.155319 17699.173238 9488.572414 7278.738766 8894.702101 16721.697966 5624.373844 4333.832099 6369.070127 752.442725 21777.548694 22582.187657 23215.331400 22721.111831 14727.007770 20689.435092 13252.654786 13315.567697 10487.271218 7643.210222 8468.162152 6599.214515 1211.569530 21983.247761 22641.142334 21779.621165 19909.830112 17568.456029 15376.651271 16750.294305 12500.156488 5891.521933 11626.616202 5456.667976 2005.541654 1839.267327 22086.190857 21461.354956 20674.168011 21166.253201 21882.378121 18225.316492 13966.148939 16576.559602 15534.796531 12374.806316 8620.944591 4060.997657 1838.292416 21868.358699 21981.735854 18567.341966 17628.419531 18434.487968 21207.378841 13124.195272 14390.932170 14311.648334 3303.646583 3938.075788 4852.411481 2972.134468 21615.465687 21485.786904 18946.882340 16505.481874 17509.500504 5997.736206 15715.207501 13297.185552 9777.960854 -486.177770 6779.895861 3376.767393 8733.148161 21681.661932 21332.942829 19595.766330 14215.307198 16801.026851 13219.135597 9202.919716 11898.380193 11230.971244 7162.185997 3042.065205 702.766300 7173.180488 21715.089567 22416.718625 21399.494997 13560.525834 11557.416104 11162.764760 7348.541442 7057.712701 9054.390013 8469.498760 3486.141513 10758.393189 1931.643132 21247.196391 23271.255498 24218.936802 19560.337140 16698.688771 15105.228799 9723.467688 13910.253199 9827.995160 2999.068338 5203.933806 4172.550906 1404.628103 20736.155637 21292.968551 20802.275293 17342.108237 16694.335612 20569.429429 13135.010533 15088.926482 13481.479795 11237.930514 8457.572896 3150.240910 2421.533557 20590.337349 20806.096982 19632.061038 20223.443672 14457.418746 17172.731632 15098.136237 12487.394182 5896.261985 8495.122092 4717.839027 3253.404051 3875.439772 20607.865659 20561.460874 17486.892828 19111.144067 12902.432877 14423.497572 11187.309462 6740.057870 3889.372104 7548.097949 4049.722621 5608.316540 2408.009431 20550.272205 20222.570115 18761.793470 18877.365260 16317.749555 11047.267314 3004.372785 5295.937721 6483.100344 5267.701050 12743.277851 6886.025009 2637.327229 20670.258858 20423.779021 19566.505728 19959.480671 19165.159068 14865.521257 17125.545603 11977.409402 10756.181809 11988.192159 3361.517105 2437.903534 2790.990249 20922.637029 19994.206201 16905.988389 18250.817024 18376.360172 15295.853022 12703.276167 11026.540182 7707.294473 3842.635616 2030.566329 6581.328299 5735.802168 20851.618025 19955.396384 18814.427917 16161.508126 16622.542302 19223.009550 17654.064943 11761.410024 7490.195387 8928.363316 10943.108029 2657.968510 1562.168661 20547.411182 19978.321544 19633.957385 17623.644624 15853.821714 17076.847290 12065.312556 5684.847812 7308.918108 11955.288239 5989.953662 1823.040924 1475.408819 20523.573316 21747.390386 22687.935043 17856.046012 17415.994767 11463.009791 11739.860505 8560.348508 7581.491830 11814.508351 4732.440046 6609.595462 4439.686997 20584.268672 22047.511132 22660.991911 16649.363791 16043.629663 16123.409862 12856.424250 17606.382506 12326.285708 5710.044585 5698.921920 5885.742903 3371.597339 20516.839845 20060.947954 18299.124988 17354.934200 19126.311723 15492.091170 14990.543869 12208.949208 7471.917523 9797.820450 7908.670827 7695.506173 2646.353155 20578.968119 20548.155624 19608.125345 21122.396860 13685.826338 14431.716980 12405.895176 12373.129203 7997.276777 12328.094182 4685.242851 4990.508542 1169.874133 20661.473447 20656.793158 18517.860598 19201.967054 15363.235285 16098.073884 12736.031381 10954.144559 11933.676463 4974.043871 5853.626050 2332.348206 2902.336955 20519.242576 19644.334332 17655.621910 14061.956272 13389.963643 17435.017742 13087.848518 13952.750886 12682.871254 11318.199617 7685.386484 11425.798567 74.129620 20312.607104 18772.072799 15514.142302 19822.794131 16428.072057 10288.929891 14411.509748 12339.287921 7003.155269 5623.483128 5121.146188 1987.949836 4171.646517 19852.215031 17683.245670 16571.609720 16833.874848 18712.879665 15514.121672 12980.900048 14357.000671 8608.091837 3694.796002 6975.433999 6047.029770 1312.318925 19387.270800 17106.475857 17371.578718 17038.284568 16024.315028 14792.001826 9377.777343 9563.754088 2496.535190 8343.363269 9218.334716 2119.466225 7317.537228 19427.614562 18029.065061 18237.805586 16668.064158 13521.558705 14266.431434 8541.979637 10880.493414 3666.857985 5108.188222 6079.880491 877.852162 2477.064033 19599.887696 18376.123739 15220.708458 17668.733905 13661.428358 14205.416649 11225.522816 6714.759919 5895.098277 8000.814225 2129.940659 9157.843604 1061.765782 19315.330192 17424.238558 13129.725062 16059.964059 13713.755128 16316.876346 7534.020281 6741.110075 5455.424015 7551.577360 4786.432812 6190.210492 756.444957 18782.833652 17111.930357 14791.602803 17223.973610 16659.855887 10837.052979 9335.339033 10734.720416 8840.189441 7252.553588 9110.949284 3132.830339 2663.761858 18367.740300 16567.027220 14411.542601 17525.623728 13590.686581 16621.130151 7742.280996 11631.219580 6918.541553 1739.568693 8144.554585 5909.621855 5886.290422 18099.693302 16577.940948 15498.795532 16184.054186 15769.133350 9483.423984 10794.482173 7479.285745 9772.209551 5922.762793 8144.657191 6112.018198 4519.819567 17993.898980 18198.370780 19540.141915 15859.491640 17540.917189 4758.695587 13601.494067 10908.250945 10951.194742 3758.536348 7313.508156 5478.980652 843.508933 17957.703684 18085.000284 17884.723824 17504.657285 17800.796412 16051.069837 6214.678054 9510.925406 8377.255633 7490.717121 8738.159356 9195.658066 5516.782162 17773.469606 16053.030458 11771.967862 17583.193125 17041.234394 8847.718406 11063.380695 6665.758820 8206.341773 10960.890667 5996.587195 8989.393053 3434.303371 17634.549184 17469.012243 15815.751930 18699.819963 16473.774146 15646.611667 9780.620679 11641.894215 11482.456505 7007.896930 5752.822686 1524.212724 3938.257360 17590.411622 17089.787008 15132.157759 12386.836129 13849.158504 13036.169855 7770.001339 11757.714834 7880.767576 11443.104509 7228.207403 4595.825524 6758.477879 17498.071330 15335.794761 13055.603630 17278.207504 11432.009932 12920.296905 15397.135977 14954.447089 11249.967030 8887.890783 11850.477089 5882.510099 2777.234989 17474.903045 14950.371805 12915.138104 15845.358673 11119.027804 8373.333689 12185.850159 10752.027005 7380.998071 9950.543374 4449.714509 2279.250897 4062.874597 17568.769154 16832.548175 16399.902378 15222.277640 15336.973418 13437.711003 13806.630968 10497.103906 9048.386257 9991.861363 6989.935008 6384.539633 2646.733739 17541.535859 17601.567670 16532.059973 12912.956931 10885.997004 11848.650820 9487.789740 5456.072122 7581.073904 4538.797655 6378.284517 3854.114418 1655.400564 17216.042909 17476.381025 16616.053040 11422.594736 14735.862930 12012.651659 13509.569165 7215.974623 15635.453400 7287.706629 9780.647913 1535.650755 2337.869627 16838.459391 17136.243724 17290.534998 16386.276442 10286.811448 12126.581405 11973.343619 10881.029016 11547.841150 13038.195551 3014.524024 6663.163274 9578.797426 16594.411247 15373.040460 14593.831307 11936.037219 12512.250469 12201.730452 15930.111017 13496.195066 9719.033780 2853.008522 15061.357646 1874.266475 5956.658646 16636.389820 16131.315402 16015.229184 16068.204108 13931.088346 10070.710827 7676.848731 10877.255358 4494.743029 10074.051365 8060.802167 3010.249852 2707.199626 16699.085458 16294.202176 15018.220454 15164.014634 10925.042147 10772.117173 9844.869933 5691.909330 10592.279267 7973.075733 3637.431520 2130.303497 3611.355344 16692.640994 16102.253487 14661.205306 12413.218529 13360.125139 14787.069294 11168.295217 13150.378182 3669.249433 12426.456622 15912.798549 7471.764074 1722.364444 16544.741819 16743.960270 16554.869774 17711.630943 12675.385771 11585.140456 11902.365520 11344.126748 6414.959719 13756.694025 3593.498897 7276.330297 2201.546524 16259.691095 15082.734589 15461.533538 13722.491637 11197.866894 12523.770830 14524.812466 3626.131264 12848.733042 7436.196153 5478.454864 9843.286773 4213.104438 15902.834247 14627.589751 16593.744102 14446.067012 12244.430134 10117.818509 11189.499585 12411.115660 12147.499214 9875.151832 4804.391693 4359.085712 2428.402207 15624.391672 13898.617933 13741.895427 11327.669771 13619.223686 10812.964118 13040.938895 10384.793151 14778.223220 9511.595727 6147.266794 10863.894686 1829.097454 15509.919819 13903.358439 14692.111584 18001.528980 13688.099012 11110.605050 11613.582050 11351.700110 12123.309553 10858.577486 6458.250963 4626.830220 5297.472643 15466.674439 16232.014743 18948.603522 18283.602389 11802.823685 7774.780838 10306.873251 8295.266298 13942.017478 11354.991165 8569.373732 11249.227297 2301.290235 15423.096032 15502.387763 17085.194035 15690.587001 14961.821482 13095.793405 11295.047692 12606.146922 9280.148036 10996.762416 7662.405197 8778.733232 3361.411806 15349.119207 13804.864826 11536.645566 14746.059934 12861.488763 11830.052156 9662.659153 7389.614331 13391.597498 1220.436547 2269.636066 6552.709789 4245.989140 14787.350312 14214.455960 11537.064413 12975.513251 10075.271112 11167.896514 15851.857651 10560.891237 6156.867685 10011.223682 21375.005886 3227.182031 485.006150 13730.196963 14604.371030 15072.282293 15630.186755 16078.914793 12897.259401 14632.195399 13645.494618 7819.808161 13187.443584 10636.463293 5505.313524 1306.150957 13027.652105 13005.068680 12232.854320 14673.595603 11148.954847 7558.917240 14525.331332 10289.944711 2704.060384 7094.725669 5353.342303 8909.966950 3362.066621 13043.026560 12089.716005 11551.686888 12815.868153 16644.207345 17034.381044 12515.812382 13658.781937 15529.916673 4976.172668 3427.623645 2928.107649 2383.471858 13091.693864 13278.652011 15607.870439 10749.290651 15009.595906 12321.590303 13941.289317 8011.273294 12572.224736 8413.054472 11417.425377 5710.260739 3530.001884 13098.712496 14704.262044 16770.694424 12772.528212 12541.255663 5508.827624 8763.494247 20856.998797 3169.259943 10395.568887 6506.914250 3126.110031 5669.577278 12866.376194 14850.177595 13085.738415 12846.384320 11752.293980 12526.123585 11925.622364 4799.158406 12320.667397 5163.882955 11506.020157 12251.027294 7231.827212 12007.451345 11383.502408 9271.004655 3803.635015 10552.891772 16036.401263 11023.369341 11214.683577 9115.602547 10442.554919 11095.935538 11443.886780 2440.713742 11299.168503 7641.985146 4270.134306 13783.474531 13240.057727 13544.121145 11639.543144 15482.856816 12269.797959 12779.884588 13543.493913 14842.425688 10473.578304 11434.833027 10546.887729 9951.527623 14927.771802 14886.607842 12070.935292 11923.442742 10063.463554 13347.786098 16384.701335 10005.424936 12755.714395 10532.314841 11693.574570 11816.749714 11947.021559 10176.320752 14164.848513 13097.961282 13344.968349 10322.901808 13756.217082 14435.224086 12660.263203 14785.923051 14926.301805
</DataArray>
<DataArray type="Float64" Name="Velocity" NumberOfComponents="3" format="ascii">