<VTKFile type="PolyData">
<PolyData>
<Piece NumberOfPoints="2177" NumberOfVerts="2177" NumberOfLines="0" NumberOfStrips="0" NumberOfPolys="0">
<PointData>
<DataArray type="Float64" Name="Pressure" format="ascii">
 14769.737743 14519.431284 14011.840316 13305.856454 12429.879833 11388.330304 10190.929665 8850.194878 7390.921748 5901.212524 4511.965362 3349.048018 2434.281576 1482.037432 235.900710 -905.562625 -1453.025701 -1502.982322 -1541.237843 -2099.701049 -3088.198020 -3836.224433 -4111.469850 -4120.145325 -4036.436755 -3908.581251 -3741.389492 -3534.683145 -3289.728251 -3018.457727 -2741.044399 -2472.243366 -2219.204455 -1984.669473 -1769.152205 -1572.063724 -1392.297504 -1228.562104 -1079.576905 -944.178629 -821.363528 -710.284010 -610.216893 -520.518765 -440.580893 -369.792243 -307.515444 -253.078115 -205.783091 -164.950462 -130.034198 -100.876979 -77.995841 -62.082799 -52.758706 -48.777563 14798.947871 14464.504489 13884.516778 13247.282662 12418.283027 11299.461710 10040.356775 8783.866327 7407.321982 5912.638177 4463.112294 3262.772964 2590.186397 1879.366986 65.959081 -1579.441967 -1888.787140 -1354.011079 -466.997888 -786.327512 -2840.960121 -4046.298742 -4295.379377 -4212.229032 -4075.163447 -3928.072436 -3760.361875 -3561.739919 -3313.887476 -3029.785272 -2745.395538 -2473.903319 -2219.968993 -1985.136898 -1769.510757 -1572.370970 -1392.571691 -1228.810480 -1079.803919 -944.387915 -821.558119 -710.466184 -610.388066 -520.679498 -440.730922 -369.930276 -307.637982 -253.175064 -205.823091 -164.835624 -129.472476 -99.303641 -74.996183 -59.140765 -50.632940 -47.241511 14791.561477 14281.409279 13675.378374 13677.833783 13216.311607 11213.203819 9468.094698 8683.359929 7236.276562 5739.903398 4203.443956 2704.180946 2830.216073 3622.828139 -444.377559 -3617.046813 -2658.433634 -1034.293290 1667.729027 921.419112 -3076.788813 -4473.226230 -4533.826151 -4323.591555 -4121.059271 -3951.668110 -3787.011227 -3615.215351 -3370.720360 -3046.689787 -2749.792918 -2474.998271 -2220.068896 -1984.940429 -1769.236994 -1572.090215 -1392.305768 -1228.564679 -1079.577706 -944.178876 -821.363597 -710.284005 -610.216802 -520.518441 -440.579812 -369.788660 -307.503576 -253.038830 -205.653140 -164.520100 -128.623928 -95.942863 -67.654237 -53.362514 -47.022189 -44.700687 -52.420164 -46.001940 -43.183055 -40.443696 -38.200429 -36.816933 -30.149460 -29.609594 -29.088677 -22.841684 -22.698862 -22.518669 -17.285244 -17.255207 -17.187523 -13.013855 -13.014519 -12.984272 -9.732094 -9.739921 -9.723143 -7.224345 -7.232661 -7.221637 -5.321902 -5.329018 -5.321083 -3.890090 -3.895769 -3.889842 -2.821308 -2.825703 -2.821233 -2.030129 -2.033473 -2.030107 -1.449333 -1.451846 -1.449326 -1.026539 -1.028408 -1.026537 -0.721336 -0.722713 -0.721336 -0.502862 -0.503868 -0.502862 -0.347780 -0.348507 -0.347780 -0.238616 -0.239137 -0.238616 -0.162416 -0.162787 -0.162416 -0.109671 -0.109932 -0.109671 -0.073466 -0.073648 -0.073466 -0.048821 -0.048947 -0.048821 -0.032185 -0.032272 -0.032185 -0.021049 -0.021108 -0.021049 -0.013657 -0.013696 -0.013657 -0.008790 -0.008816 -0.008790 -0.005612 -0.005630 -0.005612 -0.003555 -0.003566 -0.003555 -0.002234 -0.002241 -0.002234 -0.001392 -0.001397 -0.001392 -0.000861 -0.000864 -0.000861 -0.000528 -0.000530 -0.000528 -0.000322 -0.000323 -0.000322 -0.000194 -0.000195 -0.000194 -0.000116 -0.000117 -0.000116 -0.000069 -0.000069 -0.000069 -0.000041 -0.000041 -0.000041 -0.000024 -0.000024 -0.000024 -0.000014 -0.000014 -0.000014 -0.000008 -0.000008 -0.000008 -0.000005 -0.000005 -0.000005 -0.000003 -0.000003 -0.000003 -0.000001 -0.000001 -0.000001 -0.000001 -0.000001 -0.000001 -0.000000 -0.000000 -0.000000 -0.000000 -0.000000 -0.000000 0.000000 0.000000 0.000000 0.000000 0.000000 0.000000 0.000001 0.000001 0.000001 0.000001 0.000001 0.000001 0.000002 0.000002 0.000002 0.000004 0.000004 0.000004 0.000008 0.000008 0.000008 0.000014 0.000014 0.000014 0.000025 0.000025 0.000025 0.000044 0.000044 0.000044 0.000076 0.000076 0.000076 0.000128 0.000129 0.000128 0.000215 0.000216 0.000215 0.000354 0.000355 0.000354 0.000575 0.000577 0.000575 0.000919 0.000922 0.000919 0.001446 0.001450 0.001446 0.002237 0.002242 0.002237 0.003400 0.003409 0.003400 0.005075 0.005086 0.005075 0.007427 0.007441 0.007427 0.010638 0.010654 0.010638 0.014878 0.014897 0.014878 0.020256 0.020274 0.020256 0.026717 0.026731 0.026717 0.033896 0.033896 0.033896 0.040869 0.040842 0.040869 0.045800 0.045723 0.045800 0.045425 0.045264 0.045425 0.034338 0.034044 0.034338 0.004043 0.003547 0.004043 -0.058289 -0.059081 -0.058289 -0.171374 -0.172587 -0.171374 -0.361717 -0.363513 -0.361717 -0.665857 -0.668439 -0.665857 -1.132917 -1.136535 -1.132917 -1.827418 -1.832368 -1.827417 -2.832220 -2.838851 -2.832220 -4.251484 -4.260189 -4.251484 -6.213454 -6.224664 -6.213453 -8.872868 -8.887048 -8.872864 -12.412831 -12.430461 -12.412819 -17.045954 -17.067514 -17.045915 -23.014686 -23.040628 -23.014559 -30.590821 -30.621503 -30.590403 -40.074324 -40.109847 -40.072957 -51.791863 -51.831546 -51.787392 -66.095927 -66.136601 -66.081300 -83.366795 -83.397215 -83.318950 -104.023965 -104.006244 -103.867480 -128.568450 -128.374937 -128.056636 -157.723808 -156.915630 -156.051330 -193.078851 -189.947846 -187.585964 -236.850077 -225.049057 -219.430697 -262.353673 -242.547072 -233.601511 17006.500568 15992.386977 16352.525638 18718.101647 18618.207374 20690.630707 17180.980605 15668.658161 18348.096740 18564.737576 17458.921915 16711.380648 7226.172031 3037.244003 5751.635008 6747.559735 -6208.784269 -7747.966874 -13646.430758 -9691.336918 -7558.542068 -6445.662170 -5915.011514 -5685.573174 -5555.996307 -5436.880235 -5315.777848 -5155.143206 -4886.579709 -4480.838225 -3986.736950 -3502.581196 -3115.188670 -2855.615283 -2697.476557 -2587.800115 -2480.585004 -2352.452204 -2200.255509 -2031.286741 -1854.948380 -1678.742420 -1507.505151 -1344.002570 -1189.695306 -1045.267906 -910.918751 -786.502156 -671.577966 -565.332572 -466.209042 -368.708090 -286.629653 -252.540296 -237.829868 -232.114527 16933.949595 16465.360744 15452.709863 17191.887884 17836.123848 18469.005203 19650.983355 18378.087599 20918.451080 19713.855564 16389.103530 15123.535916 13162.444233 12415.233790 12889.392395 12009.732849 4121.704099 802.515953 -653.526092 -1748.812297 -2396.366639 -2817.172841 -3255.043186 -3670.479916 -4016.975942 -4279.593669 -4465.192458 -4544.369717 -4461.719795 -4199.628555 -3813.243728 -3404.616543 -3065.203027 -2832.619673 -2687.764778 -2583.838951 -2478.904474 -2351.689673 -2199.919598 -2031.182485 -1854.976466 -1678.844246 -1507.646492 -1344.164380 -1189.867478 -1045.446909 -911.111308 -786.743084 -671.991699 -566.347849 -469.252624 -380.722972 -307.379620 -265.678163 -245.479331 -237.649768 16908.269549 16731.282063 16645.878052 16941.435331 16869.831505 18074.424679 19161.257507 18339.556435 17412.952517 17013.357325 16243.579285 14964.240340 13458.420418 12385.765697 11773.285080 10672.352357 8266.801973 5814.389114 4105.952311 2706.107157 1388.051754 174.785076 -886.618806 -1791.858287 -2540.318640 -3148.579727 -3626.298717 -3941.686297 -4043.875187 -3922.815854 -3640.145712 -3303.697487 -3011.119825 -2806.517793 -2676.811918 -2580.133891 -2478.124293 -2351.793984 -2200.123100 -2031.275374 -1854.954134 -1678.746526 -1507.507159 -1344.004436 -1189.699915 -1045.282620 -910.966933 -786.660205 -672.096196 -567.034676 -471.727863 -388.133217 -321.151309 -276.476671 -251.903702 -241.909373 14797.589710 14319.503212 14410.988084 14993.942620 14956.811657 11900.751265 9295.969114 9151.474896 7280.896859 5641.006948 3508.232592 1250.340224 2148.464169 5266.843341 -781.887013 -5335.114598 -3148.829393 -964.730679 1780.373371 68.736429 -3929.954117 -4719.271751 -4609.087832 -4354.632609 -4133.453733 -3958.353639 -3796.222620 -3643.180487 14953.589979 15571.967370 17045.267395 14120.740696 14120.477728 13942.978491 11777.705718 16320.630483 16065.767253 14861.754625 13319.223574 11512.368620 14697.792625 13397.645086 14144.628088 15936.305442 9962.866443 11615.630238 11852.595790 13213.763706 14837.965198 13819.431898 14417.717023 10125.203892 15819.503367 12879.880028 6939.126432 -66.639055 15247.061863 15408.274116 14965.195776 13653.795004 12810.078845 13345.622987 11953.973400 13943.868184 15240.137975 13463.782432 9004.656568 14680.850300 10175.115119 15049.893506 12227.029569 16152.775579 7022.929449 13835.351207 12991.277069 9594.398296 12358.273622 16238.650287 13380.670940 12968.352735 12687.388403 11109.414745 7914.120763 10559.200257 15452.810814 14613.631473 12809.014466 8300.826243 14526.945557 8284.044524 13580.901085 10748.708000 11263.299954 9422.415631 -323.748937 9946.154382 9956.621968 7337.383324 9970.091914 10199.328294 9392.211530 12348.840849 11891.334727 11996.822583 12294.687078 2892.246316 8850.270830 9517.299983 12092.719991 7742.596249 12051.650920 3450.209052 15499.955543 14206.992915 10999.806790 15863.364493 4774.244716 15534.942150 12171.616106 4121.997923 13701.911238 7630.003054 11270.539420 14431.865508 11714.578103 11064.963036 3577.398177 4304.546328 13190.240329 9979.609129 8011.644069 8163.152491 637.776221 10410.499496 12564.537402 1298.845204 3250.353686 5599.969224 1959.412500 9320.893016 15434.938782 14135.962286 11421.974756 13978.702727 12054.715378 12206.591929 12827.691935 8231.826230 10748.526385 9761.957267 10301.514399 9497.578980 13097.230189 7936.585804 10738.761170 13630.884660 7110.937264 10295.983299 11573.685503 8179.748876 4991.802758 12393.785972 8414.920585 10349.324390 8158.761378 4226.125458 4834.072745 5499.131202 15145.067354 14957.345065 16083.866197 14174.265031 15556.756283 13825.037054 6397.844525 4921.776625 5086.568202 9277.159958 9177.102497 12615.242511 13781.247187 11263.391595 14480.348275 10429.010069 9224.934554 12806.789798 7184.528446 8204.715773 1712.501522 8088.074207 7721.189543 6961.201334 5507.398213 7246.023366 2377.815260 4069.432331 14968.171087 15328.070910 18157.305493 13557.894662 11872.785763 12414.519731 8676.816239 11219.350974 10289.044132 12286.674899 7175.861740 12599.636552 3412.606837 9637.983450 9395.891719 9434.688518 9664.137954 9396.592359 3288.522862 4285.054088 7149.975280 4803.452547 5219.709903 5652.929919 6974.120928 2025.409778 1645.384170 1927.010102 15271.047863 14841.558972 14453.193795 14989.861506 15703.878327 15697.573857 14177.946970 13224.904208 10716.962598 6127.705231 7550.455298 15407.848739 8209.708293 12046.157926 6669.275047 2196.909159 8826.444959 4161.908708 7305.166966 1919.744125 12193.374965 7817.374401 3384.209618 4400.747592 3952.240805 3063.448287 7464.902399 1170.382037 15543.422876 14695.492341 13164.169539 16628.778399 14256.235705 12292.661846 11567.328873 10347.233481 7731.706081 7323.590326 5358.087653 5278.135267 2945.916139 1768.043621 920.088650 9630.933302 5174.833271 6912.415153 3914.644755 4254.100726 7399.272686 10042.580488 2935.041830 3192.787605 9744.926670 2505.372799 1753.090994 1157.734933 15583.661274 15358.947954 17215.435489 17680.451565 14050.175207 13998.211474 12217.554456 11076.154192 8162.640072 15752.911228 2535.346306 8510.619659 3832.462664 7102.366546 11391.211380 3347.343858 2486.575320 5234.179730 9747.560145 4143.491879 4412.463484 3701.586950 3129.310750 942.037483 7107.945397 3611.750593 2158.091439 2225.557441 15642.918243 15277.120691 16150.633986 18223.079134 11180.847070 13300.516544 14963.583869 10384.923388 3841.920730 5261.529339 4178.000007 8072.036429 12698.486367 7832.593255 7638.035143 14662.713954 10427.432160 10604.892527 3298.929691 3855.474960 2561.135284 2722.788690 7538.108307 9286.634081 4124.640280 4919.773512 1460.594875 -179.818004 15822.584201 14988.770331 13676.026590 12951.537195 15689.157029 9684.807729 12075.432931 7823.423227 9418.837380 6656.189376 7556.146342 3548.642091 9321.904770 5893.888550 5852.042133 6753.740155 5867.412245 1218.668224 6527.076043 4602.118471 5110.677964 3786.822139 6949.071161 7184.415532 7890.433634 10279.527099 2516.038117 4306.513263 16012.708372 15641.207478 13463.343095 13740.449726 14120.667463 6323.423548 15504.904898 15080.329926 6774.123131 12542.025649 13495.712998 2872.233936 7920.824823 2166.500514 4994.309532 3522.265569 4673.589632 2198.736270 11025.370895 5771.096795 10245.841448 2340.528979 13232.113618 4192.795170 3569.072908 9111.495643 1900.500399 2108.111795 16082.092913 15888.251564 14316.086286 16513.953624 16425.858568 15968.153799 12369.133538 11928.437220 3236.249758 8499.195242 10232.017767 3942.867990 5099.960188 2251.140283 571.264068 2190.014759 2702.967626 1703.405077 2000.729722 1687.332753 2894.473871 2579.659236 1465.258031 1708.666237 2410.245879 2166.279063 1507.615132 1333.501242 16128.403673 15520.330422 15063.527224 17514.600422 15418.557283 15775.970990 11865.757075 11022.104897 4383.818793 5134.260340 7127.964515 3898.428333 3882.212432 16154.893705 16515.866589 16627.589212 15041.345976 17508.911025 10418.350003 14240.403501 9836.537967 9983.389570 9797.830754 3664.816867 1063.760840 520.448538 16247.587818 17300.204737 17033.448304 12996.857348 15269.709492 14371.840058 8635.691428 8242.912583 3023.953907 3394.257170 2376.092305 2746.287380 2818.566214 16457.804724 17483.303790 16030.406648 13476.154260 14568.788722 7425.702506 9861.190008 8935.953885 4847.590773 3928.907519 8497.376744 8878.130588 1897.376326 16665.627019 16590.402537 15304.061063 16992.799165 7481.610794 7167.471446 4553.096863 14242.019648 10908.958917 4216.650851 1857.848100 1553.985344 4225.975892 16856.204365 16653.406153 16680.535256 15796.160241 9701.842425 13483.612912 12887.748954 7750.767480 7226.968799 2727.808856 6420.593081 5505.423521 1098.816018 16892.177932 16421.728350 15099.587046 15645.035968 16153.523719 14197.423875 12153.787239 7866.511956 2240.133700 10404.403767 8451.705027 6284.982437 2772.001645 16836.676552 16911.081874 16470.803016 17201.728186 16511.542783 10685.553980 16957.141483 1181.570151 7829.899568 4360.761521 2316.243506 3840.422238 1640.013082 16728.763057 17778.111292 19441.989158 16151.326910 20943.337545 14673.803204 13266.775921 6613.910178 10395.056450 2102.517385 6264.756126 962.482870 2385.315706 16585.011421 16979.328685 18412.646890 12075.943534 15295.592424 11647.660628 7641.685091 13746.195169 6648.826132 3704.955657 8624.623897 4565.023267 3653.463816 16612.957631 15765.146181 15189.283462 16363.509124 15811.022151 14640.530097 12755.430027 5378.280883 3647.218391 3530.983469 6064.747182 5276.105203 3522.432875 16799.282773 16458.383879 15649.275934 14263.292555 10505.606144 12409.030155 9761.555304 12033.219392 8471.025370 8175.626691 2659.207231 6701.135286 4888.773379 16912.392151 17267.755561 17484.227105 16569.781089 14978.957694 18226.029465 10072.380296 11170.621492 10767.313319 5551.833721 13372.162523 6667.111116 2760.596063 16871.585890 16733.788419 16310.010443 18263.135532 10514.220180 10384.101276 6736.046463 920.299539 6079.559351 16253.549827 7287.360123 6228.325688 3815.522425 16768.129211 16385.990902 16032.053130 11840.602315 17451.641961 16073.249000 9496.352913 14760.713735 4232.950301 5751.955439 4737.830380 9235.851577 942.175099 16728.632520 16978.447492 17778.864675 16290.301500 14651.473429 16398.333266 15411.993295 12490.284733 11765.290876 4816.072243 2614.344334 5577.802126 3412.386987 16882.553993 17359.930086 19075.517388 11274.683502 10695.535284 11848.307191 4045.036825 14469.734625 7041.715244 14148.038714 6849.976310 453.349118 2405.955274 17124.525207 16906.016699 17755.267550 17320.820635 13008.775522 12784.505053 4718.922066 14577.392231 10139.941843 7598.602853 4902.306521 2799.417168 4840.729498 17362.061284 17503.126979 18348.191290 16372.820193 9848.752004 14290.995478 13298.248818 8244.692381 4569.138222 5959.407172 8945.292233 12544.780682 5210.166744 17515.425426 17297.081057 16629.400157 16805.512007 17187.078375 10563.029998 2477.664443 8996.242920 2660.676966 13969.581332 6643.254324 4846.603275 539.161985 17534.885117 17339.117319 16204.177296 16965.700365 19092.067934 10107.149017 8670.805238 8919.944552 13507.876177 9527.134864 9605.326144 4443.645719 2211.739749 17624.973947 18546.855386 19289.461969 18638.141170 16660.531343 16298.481212 13095.992596 11256.042287 10158.382889 6780.949137 10172.041663 7268.088558 5073.992851 17763.384754 18477.626883 19659.708130 20276.267013 13579.510849 14302.238632 14351.274486 12594.186883 7921.237903 14847.003060 2806.253242 3632.921209 4133.910669 17872.466779 18118.952313 17570.235070 16711.473535 18611.848808 10234.972868 12301.476616 16704.552399 16625.778199 20235.208010 9467.840541 6831.162978 3799.346731 17926.358354 18493.725387 18614.314700 16699.426201 16897.803088 18482.539518 16288.086929 16676.096953 13683.486576 5979.845789 2450.422490 6642.172089 2613.655850 18018.811410 18896.584215 19566.874282 17588.785716 18191.707403 9610.648041 18644.143003 10574.401989 15442.499923 4066.038308 5487.845721 2541.347738 10622.955967 18292.558523 19067.975836 18728.194581 14925.327622 19629.329653 16115.554551 13284.458517 10837.916049 9871.348713 5296.435143 8023.123425 12.590351 7286.820019 18510.616541 19125.146755 18174.589888 13629.771382 12775.790962 16310.990641 14003.677603 9180.030792 10716.041893 5665.085303 3620.441150 11932.973254 756.365712 18446.553568 18379.799990 18496.598186 15489.819321 17573.918430 14600.814186 12860.172274 15006.115581 12633.824950 6422.969862 3651.709661 6982.405044 -39.750637 18401.320955 18660.020991 20317.544443 19420.851267 19822.105604 18992.002352 13131.733840 14691.435580 16891.621691 9569.285840 5607.634332 4645.290254 3825.753857 18525.287345 19337.496451 22416.870912 19196.712465 15245.664180 18360.152613 16299.596905 16232.287933 7933.194901 8666.830632 6708.696021 4694.758304 7145.106848 18549.662464 19352.087669 20038.435630 23158.783965 17880.508412 18343.705094 14638.466745 11990.822703 5962.234993 10586.716503 9519.998482 8989.605593 4092.571710 18325.088727 18470.265104 18766.323574 18490.216364 16718.716039 13895.417872 6840.894160 5033.282680 12411.148614 7689.965890 14586.353156 10760.038242 2937.218245 18187.034481 19324.961898 23067.387637 21034.236661 20498.050525 16810.119966 20296.963044 16124.439428 13491.767096 12324.356037 5931.632356 932.099934 1363.569930 18106.196244 19487.604721 22376.759937 21172.394959 17546.239849 17368.251756 14052.653380 14977.550759 7151.364840 3267.388845 7240.432237 4941.065555 6592.655187 17947.313089 17352.037721 18426.999504 18494.189941 19801.765073 20290.054345 21504.808787 10248.246581 10253.824551 12499.510528 11992.636450 5520.429395 6022.679000 18223.759576 20205.654536 21971.848939 21621.324831 17355.441326 17732.847376 17473.122229 7915.917086 8638.301092 15033.637812 5648.837830 4910.569770 3573.283912 18787.328554 20528.226303 22723.717676 17478.335117 20792.463921 14710.431444 14589.350891 6726.910648 9720.585765 14805.332167 7215.327050 7481.670519 6232.142165 19294.870104 19498.226814 21659.764875 21513.334281 20308.222643 20641.032975 15717.796048 20983.787266 20178.839169 9053.818538 7447.273161 6440.202385 1832.410547 19808.835567 19895.574973 21974.324119 25040.919768 20126.806311 20827.189775 19216.864731 17675.909323 9899.023367 14053.312956 10008.942059 9470.070444 884.297244 20328.207177 20718.349953 21219.849051 21940.846716 17332.517956 18697.856924 17907.512156 15922.340999 12700.945245 16609.315825 10694.997826 7356.143195 1843.354523 21123.390456 22576.518839 24164.384113 23215.731792 21080.827588 19052.251282 17183.045047 14604.754419 15160.058502 12339.737897 10421.153692 1555.825480 1375.341908 21661.915761 22477.319082 22153.048996 22874.010391 19829.513126 19111.189013 18367.873316 15896.922233 16345.193277 11873.699301 11947.050978 13850.584527 6137.472604 21903.713267 22395.149953 23709.287483 21982.011192 18351.132449 12572.510887 17260.514840 14467.836859 14611.636456 8416.835121 9637.205566 6267.850416 5202.152677 22321.405192 22940.203468 24121.466948 24675.227709 22506.552804 19166.046305 16622.949527 19409.917128 13028.853812 4668.591387 10070.748951 9458.196749 1172.912832 22468.105346 21064.562919 21198.183394 20515.622504 21342.739179 18472.336682 18014.496252 15709.840281 4282.431287 14584.965454 13813.927015 5080.337875 10575.884412 22539.409213 22645.332766 23824.092816 22204.235850 18720.445066 19003.245221 16447.524030 13899.293729 9282.947651 5561.952244 9643.334764 7270.112609 7869.028231 22774.480307 23261.610672 23923.810186 18990.070342 17019.775275 20566.750941 16096.491721 10669.198014 8915.155640 12962.618985 10848.781218 14508.640921 11355.401336 22956.967284 24048.146624 24077.645985 22480.745887 19734.443342 22371.408209 11283.183226 7327.191534 8793.861301 12023.064090 6618.721218 12072.959015 2511.322234 23139.265120 22933.228755 22128.690481 21572.734287 20224.589235 19395.605024 12690.180564 18373.332247 16490.032652 8716.531479 16684.900507 5390.779767 3835.858120 23132.149998 22627.682833 22677.268632 22419.002897 19197.700869 22426.520510 10392.511689 17285.103927 11853.693443 8119.381931 13627.671813 8256.447759 10797.301812 22956.133189 21737.879623 19863.371780 22289.704435 20551.221586 15299.631538 17960.736230 14498.287545 12139.545696 9625.608689 8584.959827 8117.075369 6609.589393 23208.871313 24029.912735 24783.527044 18385.121828 20147.909892 8805.588911 18266.603938 15751.299079 9602.170754 11529.450718 12678.633322 10427.400495 5726.295640 23693.651105 24565.899039 24579.602220 22202.031080 21426.952071 20742.428450 11305.017128 19588.689565 16801.161988 10017.635397 11121.532364 9918.581572 -8958.612026 23929.800791 24767.735594 23710.338501 21342.881152 21437.160639 16801.124373 9607.246319 14421.516063 13168.118184 15603.983931 7504.409720 17164.063947 5647.671079 23640.244464 22654.843105 22035.247958 25480.571285 20907.652974 24320.050758 17912.619514 19067.553882 14824.007527 14071.915056 6731.954613 6098.006037 2836.149432 23558.859616 24882.049635 26247.553057 21769.222146 22115.104556 19978.415606 11445.422440 19576.915247 10030.888096 14690.729236 13186.892044 7672.394604 9054.137804 24088.823680 25685.331342 25501.041441 22252.882009 18206.934047 24564.634856 22187.341366 19840.687923 19972.625391 23019.633545 11723.045437 7238.775428 -2607.934412 24360.967146 24770.307756 24447.299728 20740.349620 18704.916020 14996.129841 16830.183234 19893.977660 17411.533352 15674.901958 5458.150820 7431.996703 -5268.438771 24355.265441 24945.378693 24220.815280 24981.437124 23834.260230 21496.474541 20303.101000 16389.684447 11926.671256 16044.034213 11965.109108 8092.562287 8008.419528 24596.494541 25007.790813 22866.690908 22926.787016 19616.398975 18346.151307 15258.600783 15655.372565 14240.114870 7533.796203 6179.031929 11389.316090 17970.164649 24590.098756 22594.670521 21753.833209 17088.054131 23984.452379 21503.937093 18340.426536 9831.810689 16725.615270 17918.920363 19290.455759 240.523859 2936.419875 24288.228731 22945.487103 23994.395225 21776.933844 17782.403507 18837.930237 22231.022279 14385.763043 22055.111075 26447.987079 6069.059051 13681.186197 16439.403539 24056.256087 23592.493712 23625.130012 20359.738703 17995.017103 18983.096606 19832.455113 17599.774451 13063.232164 -191.852758 21566.765505 4677.726224 6621.713810 24234.930446 24524.109578 22076.975772 26420.273277 21912.852955 16725.515400 8748.276741 17806.769183 13363.890744 17410.769767 10280.065255 3719.242283 8724.919917 24689.484142 24978.800731 25182.076772 22916.988837 16570.927386 20989.610430 17675.795291 6826.433943 18358.325468 9892.506566 7822.464218 5296.581673 -3891.149833 24885.294348 23736.175633 20969.092924 20213.084287 19205.007405 22176.145139 24672.886077 20246.383320 11650.788495 19263.474970 20429.899460 978.877225 2047.599520 24452.114082 22888.663524 20187.686503 20661.057442 23507.661194 19603.246597 16236.533793 15509.605783 9206.428685 13094.266297 13966.450412 7615.447497 12656.870595 24208.392317 23997.278702 25377.230813 20148.548640 19571.557417 19958.474643 23124.584621 8637.931625 19193.599623 14562.946626 17868.614307 9180.575404 -1610.012373 24007.009169 24420.543213 27862.223013 21761.912822 22033.707664 17334.224721 22365.015303 21063.266602 18517.316867 17694.986915 11870.349650 15649.829767 -1981.859253 24171.318027 25376.293299 26840.328646 17890.997941 22165.282862 14677.336141 19098.720880 17521.517076 24437.631129 19819.595050 4674.674404 16738.444138 858.361061 24533.629956 28158.213069 34614.082871 19926.165150 20971.657941 17938.933398 19141.054526 19367.037861 28389.701072 19722.872051 3471.110024 2134.657077 8728.358260 24362.783834 24876.716920 27194.547522 21644.691193 20727.706285 18873.750290 22648.493679 13521.931184 17280.953486 17581.915741 16185.468266 13674.384832 10260.941960 24099.237961 21531.518814 17521.690248 25230.237119 23910.508545 17939.688698 19929.746757 15168.545004 16116.324782 16124.461954 6602.055847 12623.903865 7772.430321 23723.193948 23996.762039 23419.438765 20582.129735 18877.182407 22527.218806 23666.962298 13558.741524 26672.051282 -2377.795638 3807.441599 10190.761834 7471.890181 23265.494421 25545.080269 25000.998250 18697.616385 20739.587981 20268.841087 24938.015085 23422.478538 15906.598251 25548.090072 16914.036434 8202.374306 4565.480723 22944.649505 23927.008764 24727.149165 18124.479199 20836.882446 14381.697241 18334.121427 23411.851622 15283.643813 23201.572438 14579.808870 12806.004087 10705.898930 22406.498639 20774.623387 22055.755764 21821.487925 22702.465458 8361.747946 22799.005904 20445.334554 3917.804674 21856.009948 9559.081848 15540.529627 3964.507996 22291.635828 19154.384707 16095.921561 22476.587764 23311.649132 20467.304476 26416.940628 22249.366496 18824.162952 8089.264754 11858.065469 4652.113552 3865.142870 22177.368900 20854.669900 20674.574399 20318.971596 23761.668951 24783.434826 27729.876659 15762.482492 19753.242714 14905.888344 13818.330473 8235.182005 -4222.167674 22003.210754 23096.990531 22379.548191 24359.440412 23574.252795 20429.544428 19718.610095 32748.898033 15822.083097 14676.314999 15304.942193 10103.162485 11119.546039 21190.369401 19701.008280 11600.142916 18657.768661 20641.899811 24822.352472 17024.845995 26744.970589 18022.360059 6740.196198 23880.102511 23327.856238 15638.777475 20023.466586 17574.455696 8864.827247 15269.913633 20647.186557 16133.945710 21653.259632 11287.417246 22194.842346 19378.909491 15800.849302 17066.177580 10247.728385 18683.100141 14575.082189 7467.382356 21012.832568 22671.252517 13247.514421 16890.172104 17186.285842 24770.680889 20767.754968 18286.228458 14888.160291 24118.079636 17482.502259 16147.097123 19353.707727 24256.837717 21630.746776 19400.129103 15767.164696 19976.223243 17587.325638 20823.510418 12430.379698 18851.512644 15724.105488 17006.500568 15992.386977 16352.525638 20048.208268 19341.835895 23791.721434 21514.915755 18476.325420 13060.243694 19462.259680 17907.011387 25412.164797 18818.735228
</DataArray>
<DataArray type="Float64" Name="Velocity" NumberOfComponents="3" format="ascii">