<VTKFile type="PolyData">
<PolyData>
<Piece NumberOfPoints="2177" NumberOfVerts="2177" NumberOfLines="0" NumberOfStrips="0" NumberOfPolys="0">
<PointData>
<DataArray type="Float64" Name="Pressure" format="ascii">
 21406.525251 21092.686815 20595.268670 20030.488745 19444.460029 18841.085277 18067.926066 16955.831916 15561.485520 14141.948690 12759.523773 11326.490570 9707.187447 8088.278316 6845.587555 5732.744301 4118.336624 2804.486985 2447.664890 2132.014241 1120.307359 -354.811837 -1980.043466 -3041.459419 -3401.447968 -3356.870109 -3150.298254 -2893.093461 -2630.359543 -2389.839194 -2186.145491 -2012.992803 -1853.919668 -1695.388148 -1531.725018 -1364.041521 -1197.005946 -1035.966269 -885.288905 -747.799051 -624.876143 -516.802265 -423.126073 -342.948692 -275.120309 -218.367582 -171.375808 -132.844090 -101.526344 -76.271130 -56.085027 -40.253015 -28.467779 -20.592347 -16.101246 -14.207555 21363.586893 21203.339875 20941.749633 20123.413059 19158.270928 18578.397271 17710.354766 16345.376484 14989.228731 13675.515897 12031.460914 10423.414758 8343.285892 6144.238467 5137.552848 4777.164265 1886.155670 716.780322 2293.070342 2482.026004 1016.736459 -432.388002 -3055.988260 -4008.630695 -3947.382505 -3613.256114 -3276.880598 -2972.954206 -2679.479055 -2411.391144 -2194.241921 -2015.722348 -1854.698255 -1695.526615 -1531.724643 -1364.078679 -1197.122127 -1036.150714 -885.516413 -748.045840 -625.124676 -517.041208 -423.348738 -343.151443 -275.301371 -218.526149 -171.511005 -132.952669 -101.595825 -76.258942 -55.859387 -39.560970 -27.142358 -19.354249 -15.271689 -13.650697 21451.344859 21739.519577 21462.054356 17133.525885 15459.358316 17404.271823 16643.260089 13792.673043 14937.071537 12472.051551 8359.590829 7812.046238 5098.444848 3038.386872 2703.086474 6130.850114 -3669.317431 -4161.003932 5231.306047 3653.467816 -739.536033 -341.374499 -6015.949076 -5736.291708 -4682.785676 -3928.887071 -3432.260949 -3095.970127 -2770.316073 -2438.150896 -2201.752866 -2018.031608 -1855.504069 -1695.867407 -1531.862226 -1364.077847 -1197.014467 -1035.967856 -885.289034 -747.798978 -624.876087 -516.802230 -423.126026 -342.948558 -275.119864 -218.366083 -171.370759 -132.827095 -101.469200 -76.078821 -55.445499 -37.971621 -23.778771 -16.880331 -13.865277 -12.732203 -16.642133 -13.614850 -12.261673 -11.677279 -10.640519 -9.982697 -7.815994 -7.568549 -7.328390 -5.361033 -5.295937 -5.214916 -3.675804 -3.661399 -3.632329 -2.504427 -2.503434 -2.491489 -1.691033 -1.693054 -1.687186 -1.130328 -1.132550 -1.129185 -0.747587 -0.749370 -0.747247 -0.489143 -0.490441 -0.489043 -0.316585 -0.317489 -0.316556 -0.202680 -0.203294 -0.202671 -0.128349 -0.128759 -0.128346 -0.080396 -0.080666 -0.080395 -0.049812 -0.049987 -0.049812 -0.030529 -0.030641 -0.030529 -0.018507 -0.018579 -0.018507 -0.011098 -0.011143 -0.011098 -0.006584 -0.006611 -0.006584 -0.003863 -0.003880 -0.003863 -0.002242 -0.002253 -0.002242 -0.001288 -0.001294 -0.001288 -0.000731 -0.000735 -0.000731 -0.000411 -0.000413 -0.000411 -0.000228 -0.000230 -0.000228 -0.000126 -0.000126 -0.000126 -0.000068 -0.000069 -0.000068 -0.000037 -0.000037 -0.000037 -0.000020 -0.000020 -0.000020 -0.000010 -0.000010 -0.000010 -0.000005 -0.000005 -0.000005 -0.000003 -0.000003 -0.000003 -0.000001 -0.000001 -0.000001 -0.000001 -0.000001 -0.000001 -0.000000 -0.000000 -0.000000 -0.000000 -0.000000 -0.000000 -0.000000 -0.000000 -0.000000 -0.000000 -0.000000 -0.000000 -0.000000 -0.000000 -0.000000 -0.000000 -0.000000 -0.000000 -0.000000 -0.000000 -0.000000 -0.000000 -0.000000 -0.000000 -0.000000 -0.000000 -0.000000 -0.000000 -0.000000 -0.000000 -0.000000 -0.000000 -0.000000 -0.000000 -0.000000 -0.000000 -0.000000 -0.000000 -0.000000 -0.000000 -0.000000 -0.000000 -0.000000 -0.000000 -0.000000 -0.000000 -0.000000 -0.000000 -0.000000 -0.000000 -0.000000 -0.000000 -0.000000 -0.000000 0.000000 -0.000000 0.000000 0.000000 0.000000 0.000000 0.000000 0.000000 0.000000 0.000000 0.000000 0.000000 0.000000 0.000000 0.000000 0.000000 0.000000 0.000000 0.000000 0.000000 0.000000 0.000000 0.000000 0.000000 0.000001 0.000001 0.000001 0.000002 0.000002 0.000002 0.000005 0.000005 0.000005 0.000010 0.000010 0.000010 0.000021 0.000022 0.000021 0.000045 0.000046 0.000045 0.000094 0.000094 0.000094 0.000189 0.000191 0.000189 0.000375 0.000378 0.000375 0.000728 0.000733 0.000728 0.001382 0.001390 0.001382 0.002566 0.002580 0.002566 0.004657 0.004680 0.004657 0.008259 0.008296 0.008259 0.014302 0.014362 0.014302 0.024169 0.024260 0.024169 0.039819 0.039953 0.039819 0.063884 0.064072 0.063884 0.099661 0.099912 0.099661 0.150881 0.151195 0.150881 0.221080 0.221437 0.221080 0.312331 0.312676 0.312331 0.423016 0.423239 0.423016 0.544300 0.544208 0.544300 0.654965 0.654251 0.654965 0.714348 0.712558 0.714350 0.653360 0.649863 0.653363 0.363853 0.357831 0.363865 -0.312885 -0.322434 -0.312846 -1.597259 -1.611471 -1.597135 -3.780315 -3.800346 -3.779916 -7.228414 -7.255182 -7.227124 -12.381581 -12.415154 -12.377409 -19.744286 -19.782187 -19.730792 -29.869562 -29.901592 -29.825867 -43.342713 -43.334318 -43.201121 -60.785854 -60.622335 -60.326636 -82.947211 -82.239602 -81.457984 -111.225592 -108.480673 -106.367933 -147.538129 -137.232707 -132.230354 -169.145757 -151.812507 -143.895960 8606.121428 8550.470025 6391.478635 6677.293336 9937.064374 10427.879310 8734.897483 6529.988995 4521.688407 8008.271968 -835.700939 1756.059285 1468.495871 -2232.843036 -3115.568467 -3501.427509 -3685.576758 -3789.641045 -3871.478000 -3952.828358 -4037.690436 -4122.439072 -4200.713799 -4265.719756 -4311.280215 -4332.255811 -4324.659017 -4285.656139 -4213.560047 -4107.852480 -3969.230726 -3799.648284 -3602.310617 -3381.591963 -3142.853212 -2892.159523 -2635.915591 -2380.452620 -2131.611591 -1894.370689 -1672.560320 -1468.697789 -1283.957345 -1118.272768 -970.551937 -838.968627 -721.287476 -615.172676 -518.423244 -429.041756 -344.968870 -261.287409 -190.249098 -160.580810 -147.653057 -142.554294 8260.230798 8174.267672 7397.592939 8354.105411 9509.401907 8233.980180 7241.759456 6396.134450 4901.667987 4740.637974 513.803501 -841.767939 -1437.191853 -2493.331047 -3151.179889 -3503.541237 -3683.350377 -3788.125414 -3870.845848 -3952.614652 -4037.581668 -4122.292266 -4200.480497 -4265.394352 -4310.874064 -4331.785887 -4324.143734 -4285.114394 -4213.011427 -4107.317522 -3968.730678 -3799.204215 -3601.941975 -3381.314841 -3142.678662 -2892.092244 -2635.953251 -2380.585950 -2131.825274 -1894.644934 -1672.872916 -1469.026370 -1284.281592 -1118.576347 -970.824186 -839.206613 -721.500815 -615.399132 -518.781597 -429.917370 -347.613544 -271.721829 -208.229706 -171.863352 -154.100366 -147.145246 8107.260977 7939.286894 7784.912120 7992.705514 7967.963724 7267.013266 6344.976692 5230.660115 3930.697178 2454.080241 624.205590 -838.526258 -1846.584296 -2632.798014 -3186.795030 -3509.915578 -3683.004507 -3787.031926 -3870.102170 -3952.233092 -4037.455159 -4122.350272 -4200.681130 -4265.707917 -4311.275960 -4332.254288 -4324.658473 -4285.655944 -4213.559977 -4107.852455 -3969.230718 -3799.648281 -3602.310615 -3381.591963 -3142.853212 -2892.159523 -2635.915591 -2380.452621 -2131.611595 -1894.370700 -1672.560357 -1468.697909 -1283.957735 -1118.274035 -970.556051 -838.981994 -721.330933 -615.314040 -518.883207 -430.541916 -349.803114 -278.199400 -220.217235 -181.202081 -159.567584 -150.702133 21557.615288 22261.471574 22160.407310 13874.530039 12843.666466 16381.016752 17004.607298 12560.963859 14686.935925 10810.107684 4622.107446 4636.981913 1365.985999 -3109.078297 -2887.457007 8300.954618 -7230.850835 -7254.686549 9776.064457 4997.941623 -3962.552424 -2252.911420 -8439.251223 -6640.841325 -4911.560947 -4017.210160 -3476.700976 -3148.334334 21863.202206 23666.441486 27342.351124 22689.822531 20370.356944 19608.692227 14695.874244 18356.266067 17759.240323 22338.032171 18457.117376 15153.741055 17246.491487 16074.438911 23867.693164 21296.990093 18970.994527 20483.393907 17738.071059 24154.749177 19759.265259 20795.822864 22152.798701 14886.344313 12316.113230 20443.125774 8583.635095 -4038.331809 22288.996743 21728.419552 22102.910487 15680.586410 16793.442564 19837.228446 18759.555874 17353.839101 18482.056016 25532.332181 15803.946128 21268.253419 16772.779183 19892.940910 17462.842896 20967.255492 10083.851049 18324.273728 18994.877000 18972.836657 16114.868241 17591.382063 20318.111218 19753.784368 21276.922609 12904.140842 13655.370920 12784.496969 22665.111072 20566.774805 21111.395383 14674.771149 19166.940423 8093.401072 17044.984340 20079.689816 18253.406367 15698.555802 172.995505 12508.546457 20263.094487 10174.436831 15193.083546 11754.070123 11547.761663 15007.326783 18532.228269 16050.017095 15800.767013 7650.973796 14925.962488 16384.284869 17368.307231 1340.860706 17217.992857 4753.853863 23343.681151 24501.844746 27842.318515 21748.633778 19247.473343 18492.870678 17322.397794 6979.390193 19571.927864 6617.920358 16415.926937 21998.871936 16128.911385 13230.016723 1245.293042 16348.605797 19548.300703 16363.811806 5069.031509 12167.068293 5056.624527 9043.313323 23295.482578 5026.698925 5857.926404 11555.418829 2696.923100 10578.891427 24167.285750 25514.366521 22699.232196 21109.808681 15422.559484 17129.506713 17951.375568 18727.939092 22361.409917 16851.895183 16374.775774 16221.030928 16530.300612 14857.147200 12738.039464 19532.380962 3841.037957 14533.101203 18659.281851 15918.444702 10778.614979 20104.770345 12597.238568 16470.433844 9706.800834 3318.971399 -5744.970228 5501.455162 24767.284515 25415.466934 20526.474808 19090.313037 16499.437610 18850.573949 10331.908777 9675.136153 13175.625569 14109.063295 17824.728274 18168.977980 18226.084825 15840.980422 20344.120427 15507.504342 11544.142619 16620.714665 13065.677311 12926.324591 2784.118452 15725.456902 13795.273496 14544.663601 9723.826441 8901.525347 1108.949109 2477.628303 25150.293825 23569.378653 19045.059766 21433.435707 21255.568191 22290.460409 19319.712157 17998.503892 17021.349625 16036.829780 13143.005637 20271.779645 6566.704553 14661.938937 20131.367699 17630.120401 9950.630097 11569.738736 5030.825995 4465.733212 13139.317213 14458.777809 5073.838779 7775.311023 8432.921623 3868.398983 1345.620173 2204.370126 25193.337868 22871.226535 18168.067667 23146.579432 23550.240728 25050.994211 23305.566354 20724.115905 17656.763336 9169.787101 16507.656862 17879.617623 16470.376146 18984.080342 5682.343424 304.182462 10726.841859 8370.829140 16173.358667 10901.259226 17266.609413 13784.246871 4838.076812 7880.492845 9606.795691 153.004617 10911.935289 3167.371814 24980.435634 21977.906693 18982.926039 21219.697755 21469.031561 15838.402135 23025.967782 19692.612292 9106.390505 15156.807727 8948.440512 10113.342947 3957.133104 4013.888879 3143.541166 8421.619638 9108.093126 8771.136169 10191.237020 4410.884652 7179.995731 10697.046402 14351.169701 6133.500928 11240.074685 5077.608736 5078.572586 588.584498 25326.526724 25732.227952 26346.208943 22913.984725 23177.568887 23967.057853 21967.947587 22658.492497 10301.170576 21072.953139 10518.586289 15142.937513 2571.014051 8698.742303 13872.002914 7226.259618 5825.973912 8652.976649 15248.671573 9781.388455 6996.155338 6989.300122 5142.391827 4508.030760 11026.618676 7439.829597 -193.778021 4783.776078 25670.165430 25191.582511 24138.400038 20195.799393 19353.501609 23756.292349 23499.281746 14861.176806 8796.802821 11937.056875 7101.149352 15980.628178 15868.812606 14366.925791 8271.838810 22512.792689 15688.408369 12338.357552 2001.778173 8146.842347 2249.265776 4429.004371 11202.395813 10822.492745 3922.888936 8275.146026 643.018844 2030.923947 25780.104498 26308.540234 26658.063382 17918.923403 18696.808111 18875.469680 17541.553621 11799.074581 20514.268762 12435.893450 13571.219912 6236.794786 12570.027841 4479.037575 7625.910555 7065.876467 2326.228943 1301.818510 8715.999073 5956.513229 5035.757132 4875.708924 8580.333011 8946.807084 15346.971491 12869.304477 2338.173863 7622.257419 25704.737837 26185.692133 27936.182733 22182.680269 16402.155368 14803.536536 18701.605579 18949.864468 13698.537682 13296.212254 14282.733825 5275.946245 10117.230547 3839.418937 5241.684132 3084.427086 7901.473594 1519.023414 9457.335835 9055.168281 15014.718858 2758.335401 17853.053035 5194.563553 5404.312972 12983.808284 1140.316598 836.340646 25974.994702 26767.730264 25597.475924 21301.384715 22010.201462 25240.808296 11928.850259 18839.481827 8751.698484 12268.078096 16130.177981 6471.857685 9371.677122 2232.568863 -332.547921 1296.162262 2189.336769 858.769336 -1686.045174 2703.902841 766.641868 2432.717002 827.588720 3343.338007 2138.674797 3125.411729 1358.086225 516.498064 26034.698086 25353.766730 24796.333786 23651.417978 22530.653272 23714.245422 12763.718137 9381.534529 4661.736795 9486.997769 8087.923924 2447.066522 1330.223779 26068.088463 24273.541377 23143.488692 19414.746443 20770.987363 10391.306306 21601.712870 12137.357329 10924.883472 13281.249397 6865.825783 790.589128 2368.213174 25972.281386 25240.053689 22883.509344 17992.243749 22425.051928 20672.037888 13640.519050 10897.006601 5088.367321 6301.059785 359.699280 2923.534526 1021.054221 25743.930874 26559.147377 23733.621084 19310.611460 19758.301563 11116.196515 15373.717280 8263.827256 5783.452774 3811.750091 15825.814713 7300.868779 1559.854510 25418.378685 26038.967786 22464.759645 25370.618445 8810.926097 12716.506502 5452.265393 14455.529820 12913.158411 9112.952525 5212.109307 1429.250075 2573.461879 24990.525538 23973.306397 20470.068177 19386.704625 11389.758258 14833.102004 18023.428020 7790.771402 10136.026224 2358.280304 7964.532893 1441.770816 1088.666966 24931.670674 22918.721304 21396.875492 20344.890305 22644.022888 15672.377441 13423.975949 9601.504725 4411.707034 12910.286252 7751.971264 4369.119894 4708.663799 25109.346020 24762.796852 23439.889339 21682.797855 18272.921431 15830.968242 19636.884875 2583.158892 9962.902984 5907.185046 4591.989280 3270.350518 1431.548989 25135.166041 24904.966970 23758.126774 20252.355384 23053.252409 19662.221628 19857.359333 9238.047684 14954.525961 2994.339398 10712.977283 1000.737852 2271.435274 24988.449133 25075.378226 23407.116711 18939.085618 20780.686762 17425.768446 16076.817673 15710.881249 9947.523587 6438.523010 9244.356134 3494.063175 4841.558326 25058.143039 23704.699395 20555.365023 22144.962525 19708.746302 18021.574987 19982.064731 6699.693059 6202.122035 195.917135 11196.702466 6582.745149 5087.146953 25201.632391 25304.702544 23998.707646 20405.161675 18375.642208 16504.805071 8879.472105 11666.088682 13542.057206 6970.947261 -1004.732632 8082.766106 4608.320690 24992.887478 25610.338463 25863.517326 24320.034001 20171.950180 20965.005753 20874.236358 13646.203395 8139.606545 6794.884225 11351.452871 2955.357312 -327.249961 24837.156353 23714.388181 23099.293336 20857.251433 15271.907815 8965.059993 10198.814741 875.753019 7050.104923 20097.124159 4456.717107 1331.620491 3157.074296 24880.594514 24230.868982 22886.936127 22921.218632 20734.313785 23571.637205 7653.544052 18216.128155 8836.303789 4133.471757 5281.944529 10523.523799 5754.014248 24624.788343 25240.253052 26178.455516 18498.047215 16446.623921 25680.126565 19902.270139 11857.844773 16443.347410 4392.063320 8354.318208 11949.440347 2531.869974 23948.041851 23726.354298 22379.289784 18607.866519 12020.178899 13659.818592 4318.254740 14358.312439 6120.164648 15759.093909 688.677769 5517.058544 1923.432512 23551.583270 24474.123789 28158.394150 24344.084937 17668.974237 17607.870237 7100.303819 19199.869974 8987.704606 9148.465212 9013.541233 3012.214994 1293.649293 23589.935165 24348.685478 23340.325293 24897.941843 16250.528219 15626.980305 16729.648770 15721.390355 4158.307534 6686.294304 8961.301548 10808.777353 2486.853256 23726.266768 23525.200409 24280.563284 25199.359660 24739.816465 20178.559805 8413.338994 10924.395459 8040.369162 20079.870793 7353.652540 5705.652293 5823.316455 23493.174022 24468.069537 23550.769061 23510.107841 21225.221088 14923.306150 13973.481522 10566.355115 17049.990183 8829.519383 8480.345423 3874.069904 3005.507191 23262.055119 24431.638575 25498.378346 23944.487237 22482.832331 24406.529723 13190.320669 20951.789694 14726.108155 15083.269215 8325.585190 11542.976101 5021.229101 23170.185847 24106.418753 27193.544993 23256.288962 20763.035652 17331.475436 16724.102702 15140.156629 7166.510531 12521.890259 914.021658 4534.003786 3611.303430 23173.452804 22178.128750 25070.485304 23034.155012 25977.059349 19874.384820 17829.749719 22844.634059 19922.028752 14169.299471 10736.972704 6286.558877 4198.404450 22625.364725 25879.727402 28805.059076 23469.613357 23583.346076 21070.330936 19389.624277 18213.675280 16024.650266 5373.978492 5532.439524 6207.619995 2764.177186 21757.607102 22738.748114 20711.475810 28337.845457 22117.369431 15236.605997 19726.544873 13894.689481 14649.339250 4708.585796 6832.227624 5144.702403 7004.106745 22057.103285 19233.231557 19415.266227 23273.308791 20615.692979 24596.947591 16844.873857 10107.915063 13195.416902 9429.946462 8073.875445 3352.722639 2687.008657 22609.320772 22613.837519 23919.426963 21609.014670 18773.462270 13818.561181 11887.524257 10570.731059 14251.440599 9731.552284 4589.129213 6257.073049 460.090140 22703.601702 21872.130356 22914.467844 21360.686244 21383.455338 18988.768630 12945.623371 18111.476614 15395.306065 7942.158866 7694.933989 4090.679603 2394.103113 22582.329970 23725.038178 24275.422872 23483.220231 23247.965615 19384.802783 20191.598453 18435.900778 15302.739347 10628.019112 3791.479875 3449.862437 1602.646006 22289.995959 23084.310932 24006.569794 18967.053534 20776.337841 22433.201768 21035.411387 11804.148882 6209.192483 10343.420648 1676.112025 2984.892673 3203.408421 22164.687655 23183.267987 24379.850943 23215.885410 23080.269912 19313.297434 13487.687059 8877.439873 6068.010258 10550.223674 6489.377337 6992.954085 1367.348766 22100.132418 23393.687874 26005.489524 20042.003220 18718.656905 17489.615121 6849.098014 5423.458097 10219.853944 5852.350359 12221.472961 6547.464217 2380.968648 21854.827803 22950.466794 24240.654365 22771.221422 20433.079862 15896.490899 17404.492507 13538.462670 12755.989090 13741.427240 5963.674789 5395.997987 1224.032914 21428.839119 22065.213317 25082.709275 23641.204798 20624.391566 20396.681793 15952.613521 15644.265380 8025.568312 3529.065719 3426.062972 6451.200396 4544.998017 21077.290421 21975.070139 23815.303192 23252.382520 22311.959978 20334.901749 18902.737165 11282.250015 9986.862497 8515.329137 9290.624879 3898.094544 2209.772256 20925.636094 21410.561848 22106.709103 23154.436283 20533.719162 16568.687622 14248.698769 6059.287492 6609.851607 9178.847435 5707.888519 4527.149615 1319.336274 20810.584745 21844.033754 22011.374334 23317.586258 20019.954859 14944.461145 15165.597607 6239.670771 9033.167779 13744.882400 5526.690853 3272.876726 3434.874238 20400.778510 21110.173403 20702.798622 23567.630313 19783.756871 17229.273234 19642.003672 18020.091713 18074.580414 9714.379820 6576.250056 6021.640361 1845.728770 20063.967790 19445.014540 18740.558865 24417.522162 21504.243030 19991.444073 18485.969370 15474.056595 10250.606283 11836.851080 10189.543138 7219.010021 5652.893747 20019.153115 20044.280547 19243.851825 19494.515625 19355.128202 20099.065180 18724.575114 15050.518548 11622.044045 13119.478094 9468.285969 4360.210797 1220.363475 20146.057148 20925.114891 20615.679045 23352.933925 19139.490853 17709.644265 16816.815859 12314.950007 10489.953637 10038.258006 4303.340858 -345.324661 1099.241997 20230.926729 21618.861950 23085.776127 20112.354959 20160.456936 15878.680777 15662.096839 14022.732190 13901.686065 15875.951469 13406.323342 11174.129191 5370.861652 19946.228780 22415.482346 22761.007739 21915.459383 20405.296393 9732.628948 16595.693024 14063.733836 10442.711839 5899.664577 8331.022153 5437.949600 3298.765546 19318.166805 19107.781511 19813.942924 21369.410877 21118.477957 18475.833175 11538.285478 18600.535763 13468.433982 3471.244819 6254.071210 8887.334607 2260.874023 19322.645973 18869.998503 18531.940988 18889.569321 19884.677232 18814.824749 13378.086548 13585.246022 3159.087800 9272.813784 9035.710010 5058.988104 6539.972751 19634.761965 20384.294571 21633.413977 19914.593046 15739.137014 16529.256914 16919.392435 9529.316365 6294.735350 8232.478980 8560.503320 4401.243912 6211.616016 19596.704199 19755.224455 21511.091573 18082.723201 16068.492238 16828.021568 14502.462912 10031.308933 4095.304749 9711.723623 7602.207841 12309.749186 6599.319194 19362.930180 18989.340479 18877.480729 19846.284783 19711.172387 17705.359227 6357.010400 10723.793243 5401.262675 9793.111390 2184.097391 7300.004733 3327.777448 19110.023536 19079.377532 19565.689710 20057.227304 20249.753404 19967.415161 12894.713398 12306.026313 16612.922985 10621.952051 12393.184166 7121.587334 2048.159392 18840.456152 18232.867384 19168.828988 21390.052215 17131.544971 20352.161040 2952.092312 13288.301969 9376.079558 5200.449224 7246.559520 5678.793068 2104.878316 18764.578775 17597.434854 18097.018311 18949.288113 17903.682480 14924.403059 16302.742012 10314.847797 11914.684921 7367.150709 7134.735033 7700.708490 2862.143866 18633.805874 18262.981652 19251.871059 18071.961412 18483.463873 8686.234445 17071.235398 11776.986947 9940.099362 5411.505718 10525.836593 5540.003972 2507.950729 18328.627403 17175.688448 16566.187289 19157.756482 19702.187978 16966.391023 8860.151136 16809.270304 13500.827111 8741.848249 12007.921275 10490.155629 1481.162963 18095.671728 16531.369437 15575.965540 19085.799147 19731.471740 15281.461468 7533.710310 12795.352858 9047.378022 13779.406236 7470.945144 5050.951635 460.134391 17960.498934 17480.218314 17268.479439 21735.833080 23131.227981 17612.019733 15780.447134 13872.935873 12304.049543 8121.020774 5738.744633 6009.615571 4206.595415 17627.170199 17238.799775 18471.497936 17274.623946 17475.136691 14893.248687 10349.095737 18219.660953 8018.003820 8509.625866 5983.131436 7542.020293 4864.255444 17589.732852 16387.260034 17269.365674 21390.645716 13990.149956 17481.617096 17460.212538 16625.238991 12569.521645 11942.129384 6534.849562 6692.013561 1245.289972 18110.034876 17508.759525 17787.949845 20483.464816 14495.343205 12449.722032 16392.347697 16039.191623 13691.021955 7063.767403 5588.159326 1604.569629 2268.654374 18419.802880 18326.594578 17203.443864 17349.838523 18662.435838 20703.239697 16638.455728 14833.801021 4539.040160 7617.151135 9060.738388 8853.458788 6086.718048 18110.915313 18654.843503 18001.685682 19391.981528 14759.118439 18274.387240 13763.431397 6545.528823 14066.180604 5886.953259 3143.278782 12196.320052 4199.740024 17535.266901 18509.959214 18867.515624 18724.534792 17191.582628 18090.695817 14841.526984 7376.183800 9751.001187 8699.718635 10286.641974 4536.388129 4286.166287 17139.953909 17755.056098 18459.899962 19747.848780 16264.349183 18142.590660 13182.734138 11121.675852 10303.406378 14673.346888 6194.673522 9031.005477 7485.784656 16908.904868 17703.530968 17625.073946 15668.582932 16140.588980 18595.694795 15554.453320 11064.084041 12238.480587 5290.199881 11114.452054 4141.111212 2277.195934 16707.134139 16728.618334 17367.471033 16906.852679 11368.229441 16833.343088 8255.022131 9203.892117 8045.181815 11792.861059 7765.686151 4724.760244 5542.196657 16418.812946 16188.979289 15717.952918 18778.526158 16382.078597 14599.406260 13665.337624 9090.474855 13567.109776 3835.924153 3662.372971 3373.680871 953.648599 15988.221034 16867.807643 17055.655414 17594.223833 17466.596167 17211.887870 14063.555822 10660.125862 6486.262834 10636.437168 8468.635783 6476.244735 2059.462277 15560.655736 17310.547203 19804.659700 19577.394067 18328.046579 14563.167374 18664.634990 11919.164631 6975.503087 11518.407781 9476.380144 2754.556476 925.196072 15258.385949 16966.152170 16167.846417 15166.331993 15493.580353 12184.767974 15883.723401 6570.165211 9403.604056 4709.511382 5967.694427 6618.683503 4155.576647 15049.258970 16146.581293 16395.150841 15857.880266 13969.805479 11830.067317 11859.479595 12204.774693 13429.387093 10157.902559 7566.048536 5356.007990 4063.530424 14902.377452 15231.763855 15071.960845 12699.884396 15639.620689 11846.666825 12391.286422 15127.486925 13510.100497 11039.854428 6688.145889 9628.376183 1507.691401 14950.814582 15533.635123 15789.682420 17166.199048 12885.767109 13869.591779 11736.033657 14738.746293 14160.155642 8398.863148 1678.597446 4904.595597 1667.631374 14703.281657 16041.574778 15968.432927 16036.187248 14631.305865 12277.282350 10989.841216 13775.492195 6743.713345 8646.487733 7172.488486 7425.330216 -444.643347 14118.379630 13953.725906 13170.252443 17061.571568 14478.675318 15413.517064 7456.523073 10670.424186 9356.321593 8905.289665 7289.572958 6308.140526 2226.512695 13415.064683 12526.118853 10551.206013 15723.792854 9203.640901 10429.582740 11244.160283 8616.772179 7902.622497 2786.191428 2622.754196 6758.888440 2539.600341 12522.286656 12438.619107 13682.696773 11391.573974 11927.226499 11305.074969 10695.353147 7400.984870 3490.507231 11628.239955 8539.210642 5838.229990 1735.595099 11678.913242 13220.592724 19140.439678 9464.810519 15304.009862 8319.638829 9775.763370 9317.776704 8249.770330 7632.116610 9916.696916 4190.064280 4516.625178 11251.192722 12317.714849 16462.723139 17326.711073 13276.498421 7693.237633 10178.519639 11785.700052 4124.363171 11713.992056 5393.005886 6430.935498 2011.591791 11153.114889 10403.834273 7406.168978 7083.909434 13431.175713 10727.973564 11500.579851 7574.852037 6541.939054 6219.078592 5265.619276 4687.211764 1367.844690 10851.045012 9057.647260 4056.340802 13155.100574 8525.837170 11480.193426 16948.152081 9168.947713 7999.140764 8153.831763 11836.110682 3396.242180 1077.316743 10409.235366 10872.906595 12185.782282 11900.728275 13079.291359 5268.747827 11623.441091 10405.379348 8036.694469 13873.537948 10821.445816 9628.472726 2710.309183 10440.152855 12098.635878 17488.027645 11081.283238 9554.655692 12276.861203 13521.914584 7853.213783 13597.657519 3846.109785 10430.846876 13633.623314 3048.342754 10658.827264 9270.165385 7975.799437 8138.967307 13055.196061 17096.327078 15854.285726 11960.858161 10658.486182 11043.687947 5180.470333 9651.389627 5324.882847 10248.346280 10782.640269 11309.172550 13493.522115 15779.834336 11895.873615 15246.005804 11617.292772 10916.558965 13636.047631 10495.117102 7385.198484 9792.993925 9286.595704 10239.901257 9813.303365 17476.308319 17204.386539 16417.688368 14477.207668 15204.854175 15562.638254 15320.774985 12602.212351 15140.347315 9763.886505 8606.121428 8550.470025 6391.478635 13878.505133 16363.486474 10881.055975 13032.449467 13475.052105 12143.603292 15434.371178 11412.658035 12431.776258 8524.855855
</DataArray>
<DataArray type="Float64" Name="Velocity" NumberOfComponents="3" format="ascii">