<VTKFile type="PolyData">
<PolyData>
<Piece NumberOfPoints="2177" NumberOfVerts="2177" NumberOfLines="0" NumberOfStrips="0" NumberOfPolys="0">
<PointData>
<DataArray type="Float64" Name="Pressure" format="ascii">
 18294.681659 17998.420249 17466.298486 16808.652216 16086.448032 15360.513981 14679.723906 13972.711663 13202.731773 12380.792595 11445.886262 10325.064057 9002.134728 7520.908938 5997.990057 4629.120466 3601.015631 2912.328415 2439.992935 2066.589381 1716.975149 1353.277552 965.971902 565.543739 173.404514 -187.651368 -501.845426 -765.711958 -984.912600 -1162.318774 -1297.311067 -1393.554152 -1457.965034 -1497.293059 -1516.809684 -1520.284664 -1510.380399 -1489.060532 -1457.889897 -1418.219104 -1371.283221 -1318.246503 -1260.217147 -1198.247304 -1133.327232 -1066.378703 -998.251483 -929.728571 -861.555318 -794.537757 -729.840972 -669.687678 -618.215140 -580.179945 -557.119122 -547.241940 18182.681422 17756.323457 17014.980271 16142.834287 15191.929104 14414.403846 13926.698901 13248.881980 12483.825796 11637.174098 10449.268180 9111.909731 7571.120052 5850.596181 4209.015664 2931.017158 2318.041681 2084.836994 1935.250992 1765.977390 1541.149166 1253.010176 911.254444 538.212548 162.896406 -186.418943 -489.597137 -742.514371 -964.289332 -1152.749689 -1293.591617 -1392.079495 -1457.274523 -1496.891457 -1516.528219 -1520.062670 -1510.194427 -1488.900933 -1457.752493 -1418.101934 -1371.185153 -1318.166618 -1260.154441 -1198.200478 -1133.294270 -1066.355581 -998.227943 -929.674387 -861.376428 -793.943022 -727.969057 -664.798439 -608.709846 -569.756132 -548.384832 -540.110870 18102.330239 17504.372750 16721.654045 15375.555771 13439.307163 13651.677050 12798.842278 11678.272400 11554.437956 11042.936555 7920.865330 6984.677988 5911.432177 4039.331318 1853.256782 402.144124 561.502695 1073.073827 1352.754092 1426.364006 1343.978586 1140.818330 849.981454 507.467143 150.976256 -184.594601 -471.360116 -695.559861 -917.774123 -1140.318061 -1290.802704 -1391.608242 -1457.387283 -1497.122367 -1516.759535 -1520.270009 -1510.376137 -1489.059297 -1457.889537 -1418.218991 -1371.283160 -1318.246393 -1260.216814 -1198.246228 -1133.323729 -1066.367291 -998.214304 -929.607446 -861.160794 -793.251130 -725.681504 -655.452680 -586.812992 -549.697119 -533.307391 -528.130295 -543.337396 -526.043963 -519.237197 -497.381700 -491.088803 -487.712525 -448.929777 -447.419154 -446.057262 -406.635553 -406.220372 -405.746732 -367.856420 -367.763367 -367.583117 -332.058797 -332.060636 -331.974689 -299.014401 -299.043959 -298.988523 -268.584069 -268.620793 -268.576107 -240.646187 -240.683693 -240.643738 -215.078279 -215.114543 -215.077526 -191.753433 -191.787798 -191.753201 -170.540978 -170.573233 -170.540907 -151.308202 -151.338292 -151.308180 -133.922148 -133.950082 -133.922141 -118.251221 -118.277043 -118.251219 -104.166550 -104.190324 -104.166550 -91.543094 -91.564899 -91.543093 -80.260520 -80.280446 -80.260519 -70.203878 -70.222024 -70.203878 -61.264094 -61.280561 -61.264094 -53.338297 -53.353192 -53.338297 -46.330019 -46.343449 -46.330019 -40.149275 -40.161345 -40.149275 -34.712540 -34.723354 -34.712540 -29.942651 -29.952312 -29.942651 -25.768643 -25.777248 -25.768643 -22.125527 -22.133169 -22.125527 -18.954036 -18.960804 -18.954036 -16.200337 -16.206315 -16.200337 -13.815727 -13.820992 -13.815727 -11.756315 -11.760941 -11.756315 -9.982699 -9.986754 -9.982699 -8.459652 -8.463198 -8.459652 -7.155801 -7.158896 -7.155801 -6.043331 -6.046029 -6.043331 -5.097690 -5.100039 -5.097690 -4.297319 -4.299363 -4.297319 -3.623393 -3.625172 -3.623393 -3.059586 -3.061138 -3.059586 -2.591856 -2.593215 -2.591856 -2.208248 -2.209444 -2.208248 -1.898721 -1.899783 -1.898721 -1.654997 -1.655952 -1.654997 -1.470431 -1.471303 -1.470431 -1.339903 -1.340715 -1.339903 -1.259730 -1.260505 -1.259730 -1.227605 -1.228364 -1.227605 -1.242551 -1.243315 -1.242551 -1.304896 -1.305687 -1.304896 -1.416278 -1.417117 -1.416278 -1.579654 -1.580563 -1.579654 -1.799347 -1.800348 -1.799347 -2.081094 -2.082213 -2.081094 -2.432133 -2.433395 -2.432133 -2.861289 -2.862721 -2.861289 -3.379091 -3.380723 -3.379091 -3.997900 -3.999765 -3.997900 -4.732057 -4.734189 -4.732057 -5.598039 -5.600475 -5.598039 -6.614634 -6.617416 -6.614634 -7.803128 -7.806298 -7.803128 -9.187497 -9.191103 -9.187497 -10.794610 -10.798703 -10.794610 -12.654434 -12.659066 -12.654434 -14.800238 -14.805467 -14.800238 -17.268801 -17.274687 -17.268801 -20.100604 -20.107211 -20.100604 -23.340015 -23.347409 -23.340015 -27.035453 -27.043702 -27.035453 -31.239530 -31.248705 -31.239530 -36.009162 -36.019335 -36.009162 -41.405641 -41.416883 -41.405641 -47.494660 -47.507044 -47.494660 -54.346290 -54.359885 -54.346290 -62.034884 -62.049760 -62.034884 -70.638922 -70.655143 -70.638922 -80.240767 -80.258391 -80.240767 -90.926332 -90.945413 -90.926332 -102.784654 -102.805236 -102.784654 -115.907357 -115.929473 -115.907357 -130.387999 -130.411670 -130.387999 -146.321296 -146.346530 -146.321296 -163.802224 -163.829011 -163.802224 -182.924975 -182.953287 -182.924975 -203.781782 -203.811569 -203.781782 -226.461602 -226.492791 -226.461601 -251.048654 -251.081146 -251.048651 -277.620824 -277.654489 -277.620813 -306.247930 -306.282604 -306.247895 -336.989874 -337.025341 -336.989762 -369.894695 -369.930645 -369.894333 -404.996586 -405.032479 -404.995408 -442.314039 -442.348665 -442.310216 -481.848622 -481.878672 -481.836214 -523.585939 -523.601343 -523.545667 -567.503873 -567.472428 -567.373180 -613.605483 -613.420481 -613.181325 -662.029826 -661.326079 -660.654317 -713.635844 -710.941475 -709.153725 -768.741488 -758.737309 -754.608826 -796.782372 -780.820759 -773.962308 12310.808520 12741.582368 13954.437179 12071.401602 11906.108097 11365.851709 9016.600979 8173.203139 8985.210643 7438.972118 5691.947604 5721.922072 4967.249200 3448.314490 2376.530519 1575.053691 1037.759401 643.710300 350.461675 127.885270 -47.541112 -193.579930 -322.880792 -443.784608 -561.150027 -677.146676 -791.989160 -904.585221 -1013.080136 -1115.293518 -1209.054080 -1292.441012 -1363.940950 -1422.530129 -1467.693129 -1499.391835 -1517.999701 -1524.216356 -1518.976014 -1503.360321 -1478.522877 -1445.629309 -1405.813847 -1360.151203 -1309.641074 -1255.201696 -1197.667683 -1137.784133 -1076.177423 -1013.239745 -948.776618 -879.384790 -816.262762 -788.833412 -777.104716 -773.019134 12322.015525 12213.082306 11755.166548 11305.484490 12064.171323 11358.648243 9726.939205 8596.379149 7905.903587 6558.939514 5128.629826 4389.452702 3690.733070 2902.900882 2158.688272 1526.642915 1025.079974 641.052777 350.403418 128.315813 -47.164957 -193.348127 -322.767409 -443.743706 -561.140569 -677.137795 -791.960121 -904.523996 -1012.981718 -1115.158311 -1208.886414 -1292.247789 -1363.730423 -1422.310847 -1467.473107 -1499.177971 -1517.797444 -1524.029606 -1518.807203 -1503.210616 -1478.392451 -1445.517634 -1405.719998 -1360.074216 -1309.580571 -1255.159497 -1197.652782 -1137.828785 -1076.390030 -1013.986780 -951.269057 -889.372410 -834.656676 -802.264900 -786.450194 -780.594121 12335.645903 12227.082040 11943.813257 11458.010330 10991.057115 10328.587589 9497.978282 8550.438293 7522.143440 6343.472430 5192.185274 4264.623053 3455.818312 2715.682868 2057.335422 1485.108289 1010.237609 635.605767 348.209292 127.302090 -47.681422 -193.611563 -322.887635 -443.786092 -561.150365 -677.146757 -791.989178 -904.585223 -1013.080135 -1115.293517 -1209.054079 -1292.441012 -1363.940950 -1422.530129 -1467.693129 -1499.391835 -1517.999701 -1524.216357 -1518.976017 -1503.360332 -1478.522913 -1445.629426 -1405.814227 -1360.152439 -1309.645094 -1255.214769 -1197.710205 -1137.922449 -1076.627230 -1014.705060 -953.494997 -895.775714 -846.852650 -812.972081 -794.001943 -786.363270 18196.043983 17424.286391 16889.096885 16189.037144 13101.693069 14081.930802 11733.632583 10425.636680 10530.787309 10219.199498 5649.758440 6202.442898 5346.932925 3934.578475 1554.272362 -1849.365181 -122.552075 769.242354 1190.005992 1333.747294 1290.883070 1110.914591 833.725594 499.178126 147.462267 -184.533119 -465.316170 -671.312854 18800.483430 17316.986205 15753.674089 20370.586521 21433.988235 14540.693952 15267.563763 20663.417344 13585.511053 17741.090590 15076.958481 16504.191836 13753.308698 16853.023143 15045.082785 15884.182168 10102.098459 12930.560381 14393.064249 16311.124540 19534.431237 16001.121176 16062.159741 13124.086736 13459.814452 13479.711838 5549.750379 5861.532277 19621.310673 19621.948479 17872.370056 13272.694864 15857.627741 16102.171418 13768.979157 14999.445097 10748.920568 16969.454877 13859.583504 12403.144555 11957.632960 14648.036273 14207.248824 15466.293673 13248.927248 14775.895781 16584.249446 14206.134767 16700.895796 16062.718334 15725.877262 12396.333569 17765.037347 14600.405862 15298.636636 15716.834427 19964.886808 21702.028925 21254.396906 12037.879629 18490.766976 7912.562629 13337.526848 15795.894405 15535.808406 17136.797481 253.583157 10295.492419 17955.089465 12823.050878 12496.254987 17607.312118 12769.716649 12128.495367 14871.100490 13380.603540 17269.583671 9166.106481 13363.855418 11754.423024 15853.009497 11859.038989 17721.815521 12696.882122 20199.230768 20865.340615 20468.828956 20630.504313 12781.214908 13837.855826 11420.051584 9317.788769 14627.246540 7770.200138 10343.080294 12245.962772 16455.267612 16519.752522 10266.464575 7062.226624 18687.092046 13296.080089 13560.062273 13588.452812 5599.305183 15952.771100 13613.823105 9772.725571 5833.500055 10065.138417 -785.393528 7934.651978 20582.171525 20106.787433 17588.061977 9010.826484 14237.992437 20289.863641 19083.521178 13710.409623 9565.290328 13565.651719 13286.450985 10841.708849 14472.805279 8594.317776 9755.560355 17586.807559 13905.421096 10240.628052 14637.223479 17642.527718 14421.649454 13654.927117 12823.488326 9595.375530 14416.843660 10244.094186 9261.505754 6897.267607 20495.669872 19187.814837 14950.791825 17111.007810 11476.005702 15485.882372 7492.800685 10538.490511 16191.329877 9071.687404 9201.874568 10567.820923 16009.556968 18905.021755 17969.896788 7565.452680 11910.812790 12358.764213 12073.901759 10502.387314 8151.113003 12467.909438 13756.424279 13392.145257 6910.673366 11281.897950 9087.389159 4621.659526 20107.413807 19667.834830 18022.061179 16320.741551 17967.536736 17698.966686 13193.266412 17002.077582 13944.973389 15626.704136 17634.560568 18542.937862 10643.721245 9034.707974 19431.901640 13145.278809 11478.652469 14168.556925 8540.724875 12881.493499 17000.431015 14846.991615 10579.331770 2361.071750 11935.838151 6359.010516 6025.685042 9832.063264 19716.864536 20080.971582 20572.709769 16025.243581 18905.089196 18078.646046 15806.747610 12971.925834 13885.631231 6964.221585 8394.481325 11453.708463 12612.283770 14417.429806 9889.569856 4859.659098 9516.555144 4798.931330 10479.845889 3843.198474 8850.411396 11673.419918 6245.681539 9789.235993 9100.574799 4742.303737 8278.146186 4449.581904 19559.294927 21249.375937 21179.079999 17329.184952 19292.488648 14748.240392 15776.080515 16050.587430 7526.118930 13712.723277 4214.082390 9187.631359 7464.666491 8425.031098 7559.834774 10134.597910 7313.499165 10088.412961 10143.786352 6287.864857 15729.501248 11458.676910 7679.849082 12045.383548 11324.890204 11572.238893 5191.052395 3752.804168 19514.788261 21104.027400 18537.039387 17555.989129 13837.576679 14935.714178 11763.655263 14321.571710 13482.339559 14837.454384 11673.415549 18094.306482 7313.296797 9288.177712 20116.134480 3553.112827 2169.073034 9282.448449 17726.536941 7891.769211 7594.684744 5944.579214 7550.770969 4608.707132 12078.547966 8318.434518 3333.460471 2418.882984 19423.427244 18467.087497 14085.457218 16792.735821 10846.692693 16823.165326 17467.717396 15675.752652 11630.220590 15111.510423 8366.424983 10377.767669 16045.030677 11843.368653 12073.484035 13828.906594 16170.004857 9766.546028 4928.306337 5313.869879 4508.315253 3126.319961 9114.316963 9937.336569 5136.097337 11188.025548 3807.914004 9385.646488 19242.420377 16691.870977 15101.868247 11710.818385 11834.531098 12367.176082 13811.932368 10102.805350 17406.176923 17077.190359 10455.000581 6078.441221 11551.905279 7162.277487 13111.654202 10879.802962 10075.638316 5325.820999 13080.624626 12088.142767 14305.325041 11022.430602 9333.657516 7439.405567 11702.547871 13633.043196 4469.165384 9505.654859 18957.585475 16799.753589 21136.014127 16389.872367 16277.972940 10361.061875 15488.574171 15998.616600 7323.084258 14420.613253 19023.214469 5692.830141 9921.892027 4852.291687 6284.628615 7776.612047 6706.856505 3972.887597 16380.801318 7807.003134 15741.247760 3847.082286 12097.290507 4340.482088 8788.111713 10939.328235 6791.798434 5791.093774 18829.184173 17930.637272 21301.639929 13890.958350 17740.970924 13558.979794 14199.610698 13122.782757 5899.700374 21313.752325 9843.822406 5375.480731 9750.583801 2247.873941 5339.378835 3018.585915 4561.275619 2545.546426 6852.106255 7363.024137 3427.425064 3405.270059 5058.014656 5411.780322 7651.215885 6132.788402 3667.511751 4542.977902 18785.735763 19041.981249 17841.095406 18914.205126 17984.421536 20425.385088 16193.640382 14442.270316 12070.024647 10314.504078 13564.229216 7521.325345 2423.676967 18449.869267 17758.181191 16230.937749 13724.200961 19857.654563 12997.980713 14098.096394 11469.355131 15151.634209 10878.801710 5675.370841 7133.818175 3795.873956 18654.205244 18912.856154 18286.067801 12558.058924 17531.195505 9672.788002 13207.631441 13597.680997 6744.556587 8799.754617 7759.484364 3683.977196 4216.348710 19073.090770 19262.834208 15634.437817 13421.748063 17309.100412 11166.999403 12356.852215 11100.742999 8249.570562 9101.233970 8629.610662 11618.017018 3156.995302 19303.949758 17344.057366 13259.332553 19953.129703 8660.133945 10917.166697 9372.184999 16056.511386 12613.402289 12666.611204 6213.156014 4457.676779 6450.672861 19557.613421 18317.910627 17179.390462 19196.583137 12983.442744 15754.918134 10287.639385 13745.108175 12197.241001 6360.024795 7982.261018 6431.228838 4543.865657 19656.784301 19314.280650 19293.441594 16613.014383 20196.590397 14660.981100 12008.456014 10549.372508 7463.007010 14200.824194 8667.990658 12416.698973 6866.875210 19543.464205 20633.172151 22077.410602 18249.819846 19965.538306 16195.848394 9379.826979 6004.252823 15349.732838 8712.878933 8605.102635 3981.022093 7624.287309 19555.131031 18948.092599 17470.192957 15491.240407 12246.892532 16348.064803 10769.937095 9070.676340 12234.468202 7853.898089 6940.659945 5714.709918 6712.057315 19549.696803 15976.848216 11613.407389 12039.571923 21554.501418 14747.360567 9096.380342 12283.985566 9248.288930 9806.746585 9318.293006 7090.530736 7481.176443 19562.713725 16720.581368 13040.644554 16322.154362 18065.636076 15057.389662 16958.181502 5348.884174 7866.052702 10216.754237 13132.742450 13094.006751 7267.958664 19819.148095 18592.194008 16850.485068 16283.191870 12770.792759 17311.964989 6317.760980 8189.049019 8614.491760 13381.168525 5830.314806 8034.133157 6364.831674 19752.256279 19651.141466 16318.345815 19614.341370 15875.689252 17646.098545 14100.199949 14211.129146 9879.245959 6898.620833 11934.143486 5213.501977 6608.603827 19403.078629 20337.087436 19739.671472 18556.658333 9038.267770 15126.228150 7444.289138 6745.435826 12316.528251 12714.224308 8159.569724 7926.791132 6685.635603 19258.334328 19480.053063 21601.584780 11419.043778 14996.667870 15427.058475 6892.670820 16848.447956 7589.113849 8200.637777 8301.497882 9496.748210 8199.473360 19622.247847 18364.770263 19427.984727 17228.405048 12711.397569 13227.034342 12810.579153 11953.119771 12122.273575 10028.909112 7301.695098 8849.704711 4074.058025 19947.411331 19531.000774 20213.617809 12864.078593 11109.987892 10817.910240 7398.733587 12386.541981 7741.186469 14748.691294 8024.181549 6094.881282 5934.373909 19781.716876 19590.586143 20322.403765 16626.946610 15602.664710 16969.551336 7467.765849 14040.553319 8663.008631 12591.983609 11561.304468 8252.842148 7075.944165 19593.250387 17881.232753 15314.170260 15995.790967 13155.814142 11620.579199 11518.085996 10780.917094 9352.008517 11352.402873 6123.749887 9467.289236 5949.494657 19565.393673 17397.648572 14863.649574 15785.121697 17734.481281 7042.052392 8768.694727 13320.905488 8168.937472 15944.187656 8495.544889 5804.373982 10490.598517 19756.643063 19584.121815 17759.861893 10122.780663 12890.151710 13851.715217 11339.905523 7505.372955 11331.670712 4216.398801 6447.244839 6458.629461 7549.093001 19821.926476 21717.789086 20134.780466 16851.894516 20366.602290 14111.378011 12688.653140 11924.905261 7681.243721 9968.953484 6366.860000 8033.615390 6136.472024 19884.562054 20370.320410 16668.025563 15039.074560 13556.625660 13499.166339 16572.868623 12845.463114 11060.450609 10964.208218 6747.376201 4736.612450 4939.324959 19809.803987 20496.289766 19209.891227 14104.248117 17965.776372 13765.543500 11244.284465 12601.357004 12558.208557 13834.561874 11056.449758 6115.305755 4733.502681 19446.711427 20471.751477 22950.353567 9410.173350 12551.626890 16194.697933 14381.036433 14233.574543 13919.862753 8588.333347 8774.375785 10439.345925 6668.085856 19099.320445 20789.343850 21530.926498 17793.016707 15085.282011 5507.893444 16046.548455 15263.627055 10969.954562 3559.092493 8965.714281 5452.400563 11183.677701 18422.790822 16496.292089 14342.133250 10652.397726 12850.594174 11645.855965 9584.604274 7240.351060 11102.707687 6897.441230 6619.361055 5213.996012 7707.465375 18058.936911 17288.303429 19786.708947 14783.056513 9325.292635 7199.155358 11284.032818 11168.554151 8106.844471 7663.816013 5699.904176 7475.551929 3615.998323 18294.120517 19727.066412 24742.578436 15367.486845 15974.964765 13475.884156 11205.998009 10610.396430 10145.193652 7785.785702 7594.903697 7722.096822 4094.029209 18634.480766 18223.821409 17347.381981 12098.965698 14026.631704 15940.872308 17015.182898 15814.419809 11539.021938 9428.334653 7482.739687 7081.685670 7331.046120 18870.462702 17942.256415 15451.950008 20346.933040 10323.763720 16609.911378 12128.362935 10585.086413 9706.236454 8299.398434 6449.607879 6655.982077 7559.049064 19011.922183 18696.291214 17269.382649 15234.922089 12420.826755 10272.951150 12886.181592 6134.704701 6267.653666 8352.092458 4120.908016 5468.993119 6335.656735 18926.112700 19919.321094 20488.564910 13564.721817 14865.422915 10597.914971 8667.184075 5903.071983 5299.857690 8177.860837 7168.542635 9257.392751 4508.391335 18795.810702 19159.442033 18347.560776 17141.291217 15666.906112 12079.967581 10191.196732 12483.706631 12164.655434 9976.145715 7109.074044 5121.817399 3044.511175 18838.993597 19483.790778 18630.077460 16165.731575 20784.223738 15404.917024 9802.565489 10750.849570 7525.260878 7017.173897 6163.404464 4389.112024 10189.419235 18791.906185 20608.856165 19328.969621 15120.663028 9408.767449 16095.610487 20118.706485 6791.051083 11081.936526 8565.706121 10330.195437 6247.326413 3456.544391 18403.377373 19377.142667 17976.444474 19592.671234 15930.819793 13773.323654 8287.614191 6397.513681 10480.962094 10246.360589 7263.287914 6600.625374 7202.148018 18008.861632 19405.003242 21601.239637 15180.996599 11044.641071 7597.781969 10916.171702 6929.061542 8863.480053 10220.923625 7019.112808 9130.518867 6507.149564 17824.137808 19782.678112 21624.807868 17731.109074 14138.139989 14928.069605 10462.264700 11136.920637 12109.611845 6593.296987 7364.654432 10465.791606 3541.056646 17682.277186 18848.728046 18513.359538 16701.181221 15801.580753 13956.294476 10819.454219 10256.607582 6354.047638 8597.821438 8315.864042 6168.324917 6849.923043 17423.026700 18459.552962 19145.043042 14651.745807 13398.554138 13602.133427 12986.604802 9745.620519 6880.903424 13695.568267 7541.545124 10093.549931 6674.425040 17200.591046 19298.653909 24115.674669 18754.665427 16196.115806 10821.508118 12931.506925 5187.343026 11723.742312 7324.299988 7672.454898 5617.134489 5198.091124 17105.689928 18170.327472 20736.282858 15078.884198 16557.606389 17113.699375 10519.307877 12029.603126 10722.227557 6707.292831 5694.324703 9843.655437 8628.212723 16868.908836 16276.997278 15590.088992 17148.338751 11871.122572 9347.961541 13872.108687 13193.435022 10704.066705 7837.934437 7299.769000 6456.192631 5437.244345 16586.686276 16079.448490 16447.682281 15758.403527 13223.117848 15254.575879 12776.694210 11041.668089 7461.514421 5835.700424 7296.153113 9891.541587 3744.889788 16502.563885 16927.928505 17566.502100 12024.632283 16898.610768 11943.632885 8052.189188 5818.564513 5673.609593 7907.181913 13346.568143 7639.288106 6432.952698 16527.260281 17703.958154 18642.327927 11489.982148 14184.497561 13141.252089 15243.805365 11034.976039 6040.746436 3600.273336 6737.846925 5735.470700 7217.565453 16709.952461 17245.338320 18727.639581 16865.659094 11400.213094 11945.115231 10911.311528 6871.826209 9337.135245 7193.972647 7189.209125 9296.382932 3031.343775 16978.263063 18234.309522 20499.495415 14708.151651 13228.225927 13071.028883 7487.689647 7265.245541 6296.446548 11232.817603 7124.563995 5517.534843 6796.161123 17001.694749 17148.588500 15122.428915 11909.785814 14162.782590 14250.797275 6830.974823 9294.516991 8728.876944 9484.437356 11370.514323 6745.284636 3767.226869 16732.946640 16655.177019 13863.365824 14839.154433 11356.384515 12735.613440 7926.604962 8576.054502 9608.522255 5515.249801 12185.112544 8533.103323 1704.918435 16383.024264 16227.449761 15581.197619 16195.354380 13286.528352 10864.035947 13409.874019 9026.348794 8854.006978 5412.116336 4746.809261 8169.280848 4714.780283 16310.066992 16172.719760 16254.839409 12425.485398 11543.483073 5855.732071 12857.441054 8031.181100 11318.317554 7470.137618 8911.658881 7336.965422 3316.150117 16297.312967 15321.496912 14858.952927 16358.719742 10580.572801 12197.011682 7571.246124 9117.955299 8001.628218 8391.332995 9443.826059 8818.735341 1691.332684 15969.377561 15875.282583 16834.687665 12804.043075 15211.871020 10663.270286 13059.778545 9219.206931 7891.883038 8094.929489 6669.392751 8311.850239 6259.489731 15632.745898 16296.826824 16888.989920 16375.182529 11675.345888 12420.566445 9235.547053 11554.285206 12971.294660 10716.823315 6567.513756 4616.545078 6520.544710 15651.071129 16365.640286 15163.010502 14309.699179 9435.814340 12654.946056 9657.689668 11764.518798 8937.038468 8862.379947 4710.361287 6563.597185 5504.190530 15459.688936 16058.930934 15599.251980 18355.297867 13761.276433 13518.091012 14158.773394 13687.332696 8196.186055 9551.408950 12513.536511 6130.375338 1460.918272 15203.702112 15530.153800 16030.656146 14422.032839 13132.724293 10304.596437 13810.885573 13596.596659 7572.710377 10607.185430 5345.515379 4856.170096 5970.524338 15388.771995 15495.259785 16415.918195 13596.441980 15057.312493 10100.192267 12374.043431 16246.288725 10497.122165 7678.314971 6094.604348 9333.844161 4541.227567 15489.719645 15182.644214 12580.179296 16074.675146 7549.323235 13087.971128 11735.151915 9120.167069 11652.188353 5026.041271 7739.423728 8369.815136 5008.668383 15300.783797 14810.969362 12000.157673 10739.965681 10329.354438 14689.615835 12912.357125 6209.972884 10259.914606 11175.162844 9839.585598 6938.406608 6435.253644 15161.300167 15236.976394 15192.398031 13768.976988 6737.547974 10997.379741 10987.242468 12401.792262 13961.096415 11596.975460 7618.223258 4856.040332 6442.575876 15267.837577 15358.397739 14761.377358 11769.599150 9920.045411 10226.233599 10724.142207 12460.560657 10390.083944 5773.172341 9878.647510 6324.653422 3163.897438 15522.892690 16406.566359 15391.842286 16220.598693 12768.084390 7515.767939 6848.791546 6546.028174 8771.758568 12080.624441 9969.394675 4298.576770 8670.556550 15631.473498 16036.705593 13581.134378 13405.236000 12347.156772 7107.360694 13451.264510 9497.306065 8818.577886 9873.944739 7221.966358 6994.076509 5272.078432 15404.781622 15138.759958 14174.100487 11267.242282 12067.931464 14530.552830 10578.225651 15379.241870 7172.157662 8533.339514 15138.525280 6692.911330 5571.749304 14942.078122 14126.925019 14365.863523 10448.640405 10134.550173 11529.616091 11847.029676 10541.937178 5131.912500 12065.129236 9371.582816 7934.225385 4769.171576 14481.359143 14714.055250 17664.861920 13610.054330 8114.337957 11526.030379 12592.588087 8261.242815 14110.566278 6100.610140 5854.540750 6762.947111 4257.297372 14280.026003 16356.798805 21940.642782 13040.881613 13567.649347 7640.534202 8993.783285 13717.396222 14675.453989 10699.500330 8223.182466 11869.580761 7062.695894 14445.535001 15525.782834 18061.631273 10187.271036 12606.143553 10158.065915 9672.486000 13883.848760 10203.394034 8913.732068 5350.238079 8274.344416 4549.757403 14515.766597 14882.701760 13883.064571 16437.041699 8150.397969 8854.072631 10079.709871 13885.506108 14593.810757 12375.104867 4578.348973 4488.371102 6210.288646 14299.831160 13519.024448 12556.502500 8830.028577 10910.238697 13708.450552 11913.194983 10151.481982 15063.049863 11779.571742 6398.225422 12144.494028 3432.104765 14135.829025 11785.338053 10396.284638 11941.171876 17331.355846 9832.190602 15249.270302 16043.529146 12171.465050 13634.896702 8358.436007 3578.263005 4051.443866 14316.978411 12710.224560 10001.682798 13320.823714 9618.683158 9449.999718 13770.449833 8028.328652 11153.617903 5710.645391 5514.564315 8982.823705 5399.942920 14559.262486 15180.365250 15732.694755 8561.165288 10502.261666 15022.154528 10020.358139 15009.469504 9921.738200 12707.590438 14433.182013 6261.187056 6138.099564 14691.788109 15371.682275 16377.630405 13441.228194 12447.537511 10217.686778 12386.038439 11349.756150 9624.983595 9854.937611 12620.838507 4704.544695 5707.396602 14805.211924 12024.696631 8174.366118 14198.979339 11731.053475 11075.747479 12636.092794 7784.051870 9069.403530 9753.727270 12467.466318 12248.930819 3898.090400 14604.196098 13495.921212 8615.051944 13829.861217 12344.247730 12119.628926 14229.482209 7199.019707 10223.251001 8758.880560 11571.525622 8572.755929 5996.161010 14268.746434 15488.645454 14457.056633 8932.939185 13468.314346 13235.652146 14245.635891 8689.387891 9419.296228 15440.932301 8966.125702 3317.505754 4541.425303 13892.499393 15421.844719 16712.143318 11833.032562 11208.357388 12035.255477 10131.575828 12778.787292 6715.146614 12252.147604 4122.706623 4156.547771 5336.190411 13489.431802 15363.821884 16219.856174 9289.844232 11962.400394 12737.497038 10308.798609 13281.535357 8336.076491 2794.814152 9880.490032 12825.135566 10207.805784 13364.495287 15080.695189 14525.994564 12995.272529 8528.155527 7131.446464 15657.384498 11451.466344 12644.646091 9617.716863 11065.972624 11402.564859 5908.256290 13024.702031 13648.806923 12026.488823 12748.454918 11564.023092 15285.427111 13552.117341 13751.939751 11785.939828 15075.283264 13734.243580 13073.578323 16500.572570 12479.065066 13708.359214 14810.300788 12559.896502 15842.806621 11834.842538 13065.588595 15065.332598 12815.659544 14974.184531 14804.771902 10726.191486 12086.044683 12310.808520 12741.582368 13954.437179 9065.852410 13423.152845 12083.734603 14779.540343 12523.852161 10913.615679 11222.115850 15789.695096 14849.856889 10797.492816
</DataArray>
<DataArray type="Float64" Name="Velocity" NumberOfComponents="3" format="ascii">