<VTKFile type="PolyData">
<PolyData>
<Piece NumberOfPoints="2177" NumberOfVerts="2177" NumberOfLines="0" NumberOfStrips="0" NumberOfPolys="0">
<PointData>
<DataArray type="Float64" Name="Pressure" format="ascii">
 21381.760410 21258.174028 21013.944700 20669.306011 20237.009664 19714.445090 18995.692314 18127.351417 17221.328733 16155.574429 14874.336787 13523.367685 12215.610575 11001.980825 9890.092390 8684.495336 6791.693301 4014.133311 992.408756 -1684.304896 -3488.083771 -4269.455345 -4299.139421 -3962.877927 -3555.242248 -3222.573338 -2985.051480 -2800.209487 -2629.919403 -2472.831504 -2341.866216 -2234.496345 -2134.882470 -2027.082135 -1902.980230 -1763.047230 -1613.003830 -1459.961704 -1309.948266 -1167.037124 -1033.493492 -910.290093 -797.608536 -695.193059 -602.560966 -519.116357 -444.210313 -377.176802 -317.366203 -264.207018 -217.367903 -177.122204 -144.763839 -121.851188 -108.273976 -102.458477 21535.353866 21361.258700 20954.780613 20361.779809 19690.068645 19156.598761 18341.365721 17570.202855 17032.900622 15885.918275 14335.337419 12936.056816 11447.196900 9785.006366 8388.171677 7722.284129 5607.526336 1608.495902 -1331.578893 -3997.447974 -5767.421806 -6162.227920 -5701.288580 -4953.165140 -4228.051024 -3666.218330 -3276.434299 -2992.612559 -2740.218044 -2523.410831 -2362.694457 -2242.370225 -2137.483170 -2027.698322 -1902.981333 -1762.957940 -1612.984441 -1460.029776 -1310.078416 -1167.200676 -1033.669904 -910.467200 -797.779851 -695.355241 -602.712057 -519.254298 -444.330383 -377.264402 -317.374208 -263.986942 -216.476885 -174.693887 -140.119338 -117.150627 -104.720430 -99.784495 21847.093829 21589.769963 20160.147428 19287.463984 17916.874987 19167.924401 17405.681581 17965.191702 17850.258276 12987.597786 12597.044195 11537.510259 9372.527130 7854.859163 4005.021048 8620.063144 1615.928343 -6540.570358 -2413.555142 -7456.613313 -8639.240077 -8377.874299 -7280.233515 -6052.442634 -4973.170762 -4159.632085 -3608.781280 -3243.141507 -2901.194617 -2580.453423 -2383.076263 -2249.917560 -2140.358069 -2028.886554 -1903.518790 -1763.187522 -1613.033106 -1459.965082 -1309.947420 -1167.036326 -1033.493109 -910.289910 -797.608335 -695.192529 -602.559255 -519.110737 -444.191828 -377.116006 -317.166347 -263.549202 -215.224098 -169.680884 -128.960550 -107.988701 -98.663350 -95.345334 -106.098178 -96.575978 -92.483073 -86.613558 -83.248657 -81.231738 -68.797479 -67.987262 -67.213690 -55.288902 -55.073729 -54.803636 -44.373905 -44.329673 -44.226154 -35.464952 -35.468245 -35.419929 -28.194202 -28.209165 -28.180486 -22.285546 -22.301714 -22.281367 -17.511163 -17.525683 -17.509890 -13.677366 -13.689659 -13.676978 -10.618660 -10.628813 -10.618542 -8.194217 -8.202489 -8.194181 -6.285058 -6.291733 -6.285047 -4.791484 -4.796827 -4.791481 -3.630659 -3.634903 -3.630658 -2.734332 -2.737678 -2.734332 -2.046744 -2.049364 -2.046744 -1.522715 -1.524751 -1.522715 -1.125933 -1.127504 -1.125933 -0.827450 -0.828654 -0.827450 -0.604369 -0.605286 -0.604369 -0.438724 -0.439417 -0.438724 -0.316523 -0.317043 -0.316523 -0.226955 -0.227342 -0.226955 -0.161731 -0.162018 -0.161731 -0.114541 -0.114752 -0.114541 -0.080620 -0.080774 -0.080620 -0.056394 -0.056506 -0.056394 -0.039204 -0.039285 -0.039204 -0.027086 -0.027143 -0.027086 -0.018597 -0.018638 -0.018597 -0.012690 -0.012719 -0.012690 -0.008605 -0.008625 -0.008605 -0.005799 -0.005813 -0.005799 -0.003884 -0.003894 -0.003884 -0.002585 -0.002592 -0.002585 -0.001710 -0.001714 -0.001710 -0.001124 -0.001127 -0.001124 -0.000734 -0.000736 -0.000734 -0.000476 -0.000477 -0.000476 -0.000306 -0.000307 -0.000306 -0.000194 -0.000195 -0.000194 -0.000121 -0.000122 -0.000121 -0.000072 -0.000073 -0.000072 -0.000038 -0.000039 -0.000038 -0.000013 -0.000013 -0.000013 0.000009 0.000009 0.000009 0.000033 0.000033 0.000033 0.000061 0.000061 0.000061 0.000099 0.000099 0.000099 0.000152 0.000152 0.000152 0.000225 0.000226 0.000225 0.000329 0.000329 0.000329 0.000471 0.000471 0.000471 0.000662 0.000663 0.000662 0.000913 0.000914 0.000913 0.001233 0.001234 0.001233 0.001624 0.001625 0.001624 0.002076 0.002076 0.002076 0.002552 0.002551 0.002552 0.002974 0.002971 0.002974 0.003195 0.003188 0.003195 0.002958 0.002945 0.002958 0.001840 0.001816 0.001840 -0.000829 -0.000869 -0.000829 -0.006075 -0.006139 -0.006075 -0.015431 -0.015530 -0.015431 -0.031132 -0.031282 -0.031132 -0.056377 -0.056598 -0.056377 -0.095653 -0.095972 -0.095653 -0.155156 -0.155609 -0.155156 -0.243301 -0.243934 -0.243301 -0.371347 -0.372218 -0.371347 -0.554144 -0.555324 -0.554144 -0.811003 -0.812581 -0.811003 -1.166712 -1.168795 -1.166712 -1.652674 -1.655389 -1.652674 -2.308175 -2.311673 -2.308175 -3.181770 -3.186224 -3.181770 -4.332755 -4.338366 -4.332755 -5.832715 -5.839708 -5.832715 -7.767099 -7.775725 -7.767099 -10.236800 -10.247335 -10.236800 -13.359687 -13.372432 -13.359687 -17.272067 -17.287344 -17.272067 -22.130019 -22.148171 -22.130018 -28.110586 -28.131970 -28.110582 -35.412776 -35.437762 -35.412762 -44.258367 -44.287327 -44.258322 -54.892481 -54.925768 -54.892333 -67.583918 -67.621807 -67.583437 -82.625285 -82.667783 -82.623715 -100.333028 -100.379278 -100.327907 -121.047953 -121.094287 -121.031249 -145.138201 -145.171772 -145.083719 -173.011447 -172.989231 -172.833781 -205.159807 -204.937349 -204.580452 -242.312561 -241.394595 -240.425075 -286.159998 -282.613968 -279.980089 -338.870150 -325.559324 -319.327663 -368.819850 -346.653668 -336.685505 11124.636298 11329.593546 11763.300669 9985.280748 10182.103445 10910.190616 10014.655072 6974.388653 6296.720529 5810.166981 3267.176510 1746.260043 1746.610384 -571.563400 -1877.863558 -2333.217381 -2628.295100 -2836.527708 -3002.213468 -3146.368133 -3274.866716 -3387.199134 -3480.887621 -3553.363046 -3602.633742 -3627.419828 -3627.116896 -3601.756086 -3552.001233 -3479.160092 -3385.169417 -3272.523854 -3144.140324 -3003.171473 -2852.796996 -2696.027005 -2535.547340 -2373.625502 -2212.081688 -2052.316364 -1895.376890 -1742.042208 -1592.906267 -1448.446089 -1309.067093 -1175.124352 -1046.921865 -924.689609 -808.522564 -698.205514 -592.730338 -486.681526 -395.906660 -357.837872 -341.380883 -335.062660 11056.103372 10982.886607 10786.296208 10340.309795 9724.349689 10031.723379 9148.787513 7556.941354 6357.089154 5113.300118 3183.227824 1198.134401 -155.787111 -1239.457222 -1889.937349 -2327.339674 -2623.037448 -2833.454713 -3000.727183 -3145.645606 -3274.423379 -3386.827470 -3480.516110 -3552.974626 -3602.230125 -3627.008356 -3626.706702 -3601.357313 -3551.624681 -3478.816482 -3384.868263 -3272.272275 -3143.942143 -3003.026866 -2852.702749 -2695.977290 -2535.534806 -2373.642410 -2212.120878 -2052.371904 -1895.444358 -1742.118649 -1592.989966 -1448.536349 -1309.164433 -1175.232145 -1047.052552 -924.885728 -808.926627 -699.302039 -596.126089 -500.151052 -419.424990 -373.089948 -350.553128 -341.850594 11000.123599 10878.940333 10640.318484 10208.216837 9634.250917 9279.041029 8403.745756 7271.970834 5971.278411 4508.358709 2795.153546 1015.294512 -358.316401 -1269.587684 -1891.699746 -2324.883071 -2620.267201 -2831.506133 -2999.827314 -3145.385548 -3274.487515 -3387.057239 -3480.835509 -3553.344187 -3602.627010 -3627.417456 -3627.116070 -3601.755802 -3552.001136 -3479.160059 -3385.169406 -3272.523850 -3144.140323 -3003.171472 -2852.796996 -2696.027005 -2535.547340 -2373.625504 -2212.081692 -2052.316378 -1895.376935 -1742.042355 -1592.906746 -1448.447658 -1309.072227 -1175.141155 -1046.976845 -924.869481 -809.110761 -700.132182 -598.961978 -508.533938 -435.050487 -385.572928 -358.205791 -347.065647 22117.266352 21817.959841 19962.403885 17917.510421 15372.740129 19186.390238 16452.941788 18017.653999 19148.539968 11297.377329 11741.230539 11563.615409 6726.069626 3607.909928 -3529.450904 10546.104449 -2577.133820 -18401.606706 -5564.295460 -11022.430940 -10199.713759 -9038.761309 -7723.961064 -6354.212163 -5174.996142 -4292.555024 -3701.805322 -3335.856376 22816.875805 24078.985036 26520.767899 23801.988110 24085.165780 21777.281634 23381.659063 26449.652717 24102.287954 25733.507242 24174.784879 19569.568323 23896.229352 19191.687567 23649.664688 23754.777429 20438.215578 24199.154252 15647.094698 25102.262894 26230.334081 16180.630045 20954.025184 24023.004001 21038.395442 14831.128080 12369.838312 5528.990891 23540.567694 23878.703065 27483.653413 19662.507464 19658.398443 24130.339617 21623.999561 24268.139321 23435.931734 20286.736634 23500.841373 24459.648240 14878.569007 20570.268816 20564.731584 24570.563122 13260.732965 24114.994178 20796.032788 19959.527917 21853.911730 20090.374806 24516.184195 20723.827588 19947.343060 16306.041664 14924.567845 22893.987707 24638.133207 22269.606884 21699.949967 17526.634723 20317.959110 15739.816668 22073.780746 22705.200701 20717.934834 15569.555135 3214.450263 11101.990539 29660.165693 12160.985420 16304.849273 22645.336312 20105.288459 20036.904609 20707.771223 19448.496326 14922.631581 7530.187131 17009.337473 16570.029893 22800.074091 14641.113112 24257.590635 4168.152121 25734.020869 24111.287190 22835.533162 25563.403380 14543.709143 20864.989506 20461.190244 7673.740868 19671.238085 10391.156987 20080.689681 19970.834445 17470.756575 18980.291168 5855.596496 10655.221694 19888.647358 17499.814171 4807.803300 16498.396826 4048.668423 14880.482123 24023.182242 -423.832183 -4262.465892 7452.456436 3176.431132 9821.742417 26123.767105 23125.935377 17481.721373 22100.995102 27198.256528 19249.127825 23080.422601 21364.680547 18427.927154 9675.412020 14279.534679 20659.720626 14272.750752 9584.642468 11401.735925 22430.819212 14045.299844 12216.909599 21838.119374 18019.439220 8459.424107 16889.416306 19406.004859 17142.475337 14124.515458 4389.193103 9082.191584 7353.062316 25947.985018 24483.769091 22308.572679 25893.328440 22299.775713 25555.195554 10085.810288 5941.117051 17923.418293 19698.833615 15297.747012 19570.704335 28075.688174 21618.687289 29457.119015 14152.792458 11157.768494 16246.132087 10868.224310 18218.221496 6438.165849 16106.723273 18935.853014 12908.075904 4403.582918 15952.301202 5986.288045 1082.243986 25918.525302 25697.228477 26770.073312 23289.056382 20242.259384 21317.488721 22289.163723 21990.246598 20664.728371 19812.359049 15205.881853 19304.601263 8726.226983 10102.066325 19979.977511 16795.285621 14755.379471 16413.007105 9194.271880 5854.833785 13433.723115 8238.813132 12248.572929 4520.876410 8855.438648 2539.291158 3044.564108 15152.036037 25981.404582 24961.715540 23250.913073 21994.680060 24856.513024 28862.377345 23944.298481 25651.118144 17371.701948 7581.847024 10091.361891 22119.470981 18633.189273 20050.896269 11507.822808 7269.329020 11494.077834 8901.282999 11616.483698 5248.343916 20097.777936 10451.302170 3419.890754 7307.417512 8018.167906 7623.045046 7886.157085 5565.974739 25609.164933 25404.572764 23451.515859 22454.312885 22531.360002 19450.002642 20440.522280 18844.690710 13064.634833 11646.462336 4617.700099 7519.770368 7851.940048 7279.015868 8519.979473 13094.946315 6802.721593 6686.260271 12883.328675 5219.277062 16235.115012 18928.449598 9692.610820 6842.591810 15798.568081 8672.423852 6615.430363 436.505674 24860.496361 26242.333282 29824.220383 25560.454032 23296.547309 20363.708235 21365.636843 17533.010172 14726.644203 21273.305367 4555.266196 16507.040424 7869.868299 14298.044038 20215.886000 8091.906435 4734.322985 9743.984722 13429.075032 8881.830240 8218.826823 7103.614813 2539.945443 6645.817606 13397.392855 7027.498330 2536.913915 448.293816 24488.811311 24965.643242 25419.352173 22140.025039 17612.070630 22027.642872 23289.115716 14840.172320 5849.867010 9742.661753 5528.672109 6113.033477 15446.886414 10882.247570 12751.062561 20504.087529 17235.521375 12790.082595 3442.557119 5703.201849 3519.090029 8227.437381 9299.325429 10769.946256 4407.728382 7184.714271 5874.332647 2330.903151 24715.898929 24982.147498 26851.441300 16015.910451 19721.097604 19672.095203 18921.088429 17912.207017 15041.854753 10497.889490 10976.116065 7895.536311 13580.705161 4217.176273 13712.078033 17264.450890 8309.994332 -116.442850 9740.045252 8097.513399 9146.074715 5628.553611 10878.231078 10184.126908 10134.942712 15296.951287 3694.001205 3900.243217 24986.337585 24604.221034 25692.575908 19231.992399 22929.905395 10475.832194 24127.117639 21490.742486 11189.090283 19368.818973 18468.188639 4040.987630 14165.913906 5332.748307 4801.525766 3579.351756 9419.737501 522.843034 16374.754150 9495.300633 14180.698879 1837.594176 17169.916578 7991.308674 6583.651883 11085.920770 3842.606950 549.147159 24986.384098 26230.761815 26205.009380 19317.044742 22072.879958 21740.957231 12761.230397 19372.802498 3958.082749 15503.189970 15257.239688 8247.923876 11342.995341 1596.795945 2237.748047 5579.319870 1163.016139 -1105.936524 3461.590050 6870.659015 6354.991232 1706.905039 2476.627920 958.397358 603.506516 2605.288058 355.599768 348.634135 24566.348340 24908.847728 20391.441062 22633.070482 26055.572720 25757.686475 14262.353384 14184.365895 8390.028469 5660.352054 10829.139090 3817.708019 4092.317553 24350.060831 24827.189101 21453.146259 22614.963649 26719.795715 14629.367681 21503.471846 10684.172625 12140.024099 11424.542824 5265.727566 4768.111760 242.567787 24504.719573 24101.016778 21985.653224 16846.249531 19064.560370 16449.114862 12073.343766 12937.204299 6102.337405 6018.920058 5420.284451 1912.323743 634.681210 24768.433413 23442.745384 20812.108378 19273.616690 20759.246496 8322.375444 12457.168470 17140.294155 8296.390774 6998.669893 10318.481016 11952.465873 1394.651121 24459.476808 22150.591589 17771.276029 20840.518049 10443.270599 10341.295736 7801.204682 20059.633585 15040.439193 7520.975266 5027.928173 6711.799372 1365.574648 24140.751913 22185.169264 19548.869409 21831.334421 16412.737584 15021.811080 20273.134516 9678.104194 11281.036635 2462.543895 8887.898320 3555.561448 6739.528162 24315.378930 22258.084635 20692.557410 19963.381039 21651.878847 19400.689509 15819.873775 12202.592588 1740.447258 13579.595218 7631.082667 8381.317607 3953.298242 24446.230256 23416.732375 21458.458549 21160.693135 20675.987232 17379.971681 14511.480761 -574.972638 10646.012744 6396.888461 4053.786707 1188.327525 2018.306872 24469.435311 23270.304507 23770.458471 18787.293868 22137.830872 17261.260910 16079.125068 6402.313109 15074.901328 5106.664777 7672.432732 2982.128181 4091.860062 24568.791736 23532.275297 23448.925792 15852.746999 18876.961075 15808.590778 11584.720309 15699.636707 11019.824181 8595.057929 9312.189627 6906.815693 1381.621330 24380.929348 24224.378347 23257.381513 22074.441692 20666.084258 16995.909884 19581.484085 7825.389432 2888.847682 5366.735304 8635.261186 10685.177366 4884.776152 23918.197727 25696.996941 25489.123616 16027.901939 15456.852287 19142.446036 7672.350547 13854.147885 10298.227433 10982.576515 3592.525086 7302.728450 2762.608855 23424.380517 23766.293184 23401.393005 23029.443065 17660.262735 17462.756583 11546.876228 13164.210631 11788.677630 6571.822427 17968.659090 6302.091998 2220.523561 23111.827847 22163.565263 21356.768962 20554.598298 11963.656395 13605.720097 8107.133689 3607.624768 7651.578638 18448.935583 7189.393042 3780.421261 2849.334289 22939.522421 22396.514799 22602.274099 17503.127635 18946.611681 20712.228204 11460.678510 17209.290232 9390.070129 6863.265763 6972.512578 7037.501715 2013.825934 22676.350224 23631.764027 23685.562895 17275.559873 16752.544508 19957.805600 18271.743631 13572.567485 14540.393646 6390.006740 5294.407359 6958.076538 3163.591286 22048.632958 23192.653050 22254.667693 15604.501679 15276.889023 11109.179716 7694.924668 20135.854961 8859.653746 14019.445482 6774.597802 3371.209401 2666.490242 21541.698870 22380.731086 26451.207949 23793.891993 17463.825692 14565.428958 5107.675218 20610.218273 12184.875067 10641.083125 7151.717552 6036.540284 3046.253967 21352.486893 21857.239302 24192.774875 20543.586643 12313.738830 19367.612672 13788.035182 11434.849176 8694.861565 7233.214567 10944.774607 10861.683721 5396.213777 21152.037478 22896.192268 23138.579169 21023.062523 19917.546577 11702.414871 6920.129964 10510.897384 3926.986328 15789.676567 6450.867246 5095.412799 1718.032018 20733.653865 21933.740416 22698.536197 23908.261294 20499.886017 9534.867490 8437.544746 12658.794619 13114.705107 5332.999818 4932.083912 4177.763564 3039.692109 20408.044115 20602.915268 19572.005376 23158.751630 17886.042264 19886.760797 12166.263780 15265.295159 11760.578243 6884.090794 7796.728936 6188.960072 4719.191259 20300.858752 19774.550225 20887.181705 21511.526671 18078.398768 16343.720774 16374.913998 11159.829946 8243.692933 9856.042889 2473.078037 3863.418724 2739.726771 20339.726742 21427.068781 22293.608520 18318.019749 19589.627221 17621.456637 14551.248807 17854.824257 15984.626576 13459.055935 10460.599883 5245.454067 2656.406446 20285.496782 21355.474354 22934.180267 19088.542838 19587.339721 19114.064380 12621.653258 16113.235319 19101.864056 9034.924970 4075.978095 5497.380745 2493.589577 20137.481018 20126.590627 20691.552351 20952.468120 17394.615804 6776.169557 18423.513313 12109.976510 11072.363373 1388.114318 7227.100964 7028.690243 8611.774583 19792.130044 21096.064076 21094.323739 17127.875103 17028.934207 16508.436146 9843.386981 14164.677548 10661.366397 8854.956931 4086.283199 2678.187330 6604.490875 19214.592543 20051.018682 20973.426777 16675.087262 11965.557581 10220.389919 8047.736732 7754.403423 8526.552902 5851.574528 5399.349267 9255.869404 3230.973317 18913.841061 20358.484001 21797.800642 17075.230227 19349.953451 12396.255167 10613.480600 16533.374248 11218.236058 4606.783473 6987.959381 3783.406658 2249.507154 18972.140325 19612.763055 19541.511301 21444.536815 17595.328943 15075.215047 14595.025841 15124.075160 14633.019567 9560.191096 6911.021035 2928.291301 3135.439145 19168.574395 18704.637502 19029.718414 18835.731485 15358.237943 18128.700048 16806.898860 9923.419649 9167.542572 4916.749266 4770.551699 3020.934012 3623.010416 19348.835896 19917.092515 19790.264942 19802.494326 18853.801471 18139.194924 11226.482241 8824.568731 6223.562614 6702.737802 5439.128023 1938.013921 3805.979704 19359.580297 20158.294332 18945.424452 19163.323403 17128.358855 10921.210547 4365.087743 4443.035012 6879.409927 3658.328224 8339.800170 6238.551913 4001.460500 19115.110501 20157.149364 20653.990743 21276.747867 19675.216295 15031.513426 14168.995938 14812.631565 10667.197499 9784.687919 2641.315810 2854.170890 2543.752531 18719.220308 20239.303272 22836.396285 19667.929336 17933.581552 17216.833354 8584.706756 12541.137740 5059.751896 4218.630928 4683.275679 4108.519614 4836.020819 18431.114586 19737.661614 21828.823606 18077.552515 12843.061200 18497.721058 18874.665440 9916.895563 8452.396830 6249.766021 8788.185557 3214.177943 2113.748368 18387.583303 19603.481621 20928.696524 18708.366542 17587.781497 14744.220636 10640.575842 3700.524749 4921.444060 9545.495746 4527.660458 1493.316996 1330.731909 18499.058074 19155.974285 20374.700138 18262.129385 16190.434351 11572.420112 12458.293379 5291.897762 6262.596576 8480.537989 4765.946124 7936.288387 2218.816273 18655.321315 18689.209340 18240.080534 19408.752979 14628.292635 16269.976110 10303.273778 14015.200038 15693.210174 4184.979837 8563.673151 4052.618918 781.858943 18711.308339 19178.828012 19013.066734 17884.583632 17934.807312 16458.575620 14839.453659 13311.664036 5539.441862 8549.896550 5383.490071 8101.928218 4478.547705 18493.007364 18747.963822 18494.658932 18540.238931 13727.792839 14371.042962 14261.630999 13107.995998 5399.714296 9928.889752 3365.948164 3979.190474 2633.754944 18187.177705 17728.372720 16508.883978 17045.754952 17504.971181 13927.436518 12727.962920 8627.946149 12789.382165 7871.882800 4812.534964 1694.883002 2552.255920 18050.288105 17514.335815 15115.090353 15529.665388 17398.967354 14790.928709 12901.480090 11684.702749 11855.326147 7521.254366 6675.997488 10808.659582 2201.407226 17968.519944 16850.183936 13666.941072 18604.792772 14752.987503 8981.275274 12832.058359 10427.520334 6343.547284 7111.438749 6097.241184 3677.621960 3505.827512 17777.378815 16823.787295 17268.734607 19632.216871 18832.203514 15604.427564 12002.385385 13570.099707 8014.678809 3873.335118 8354.757126 7875.656330 1190.861453 17725.807782 17619.567074 19146.532097 16084.031113 15796.124273 13025.818828 9370.440380 8640.667987 3209.967007 8143.674540 8548.365208 2194.038948 3246.681799 17782.098043 19810.122050 22718.223201 15940.379547 12143.052626 13437.633482 8240.883302 10029.023282 4641.026567 4201.706814 7125.282906 3211.357000 2910.150544 17589.596609 19819.553669 22431.480595 15893.210033 14281.611859 14989.287575 11918.192888 5233.744315 4968.863855 8088.513312 5066.069347 8777.065320 2166.125055 17460.257568 18322.409865 18848.249686 18034.981615 16593.734260 15077.526587 8061.009779 7546.982983 3285.677706 7748.793255 3570.383951 726.571421 1639.006041 17419.585434 16637.817788 16263.221413 17158.866619 16106.883410 13931.573046 11614.031797 11739.636331 9688.956168 8659.549044 9606.562943 5608.781808 2441.859840 17251.220455 16226.786875 13716.525347 18428.234788 12574.783676 16733.334849 5120.872489 8314.329690 7923.017699 3187.979985 6752.058731 4487.418117 2777.910479 17108.747985 16093.957098 13777.231291 16267.799039 17192.386197 8870.350236 12325.829097 9044.636322 8941.575259 7757.520459 5068.859758 6823.445996 1393.701958 17078.021740 15196.670037 12668.507858 15053.408586 14193.132432 3681.044556 13299.184862 8299.092575 10194.491670 8070.968794 7109.760931 5508.162077 2192.327430 16955.449761 16494.295718 14816.645639 14535.913559 13699.810060 13163.785377 5840.317400 9721.899226 6281.415970 5055.060560 8156.615062 7640.061001 808.263416 16792.212096 15958.759809 14439.304806 13269.285766 15062.134492 6810.947502 9766.830184 3748.640011 5935.449261 6901.704550 5490.955055 5558.154124 2590.137343 16649.607931 15980.550244 14851.418007 18500.124398 16316.868545 13415.767294 11796.810435 13986.930767 11851.210268 6872.644315 4330.303596 401.710941 2847.508889 16427.556310 16723.540531 15406.918103 16905.356054 12881.340567 12029.810318 4910.633961 10675.641136 9152.919681 4357.885566 7076.462342 3760.019869 5584.939218 16332.873857 17092.235244 14960.490266 16414.285548 9211.049620 14909.740085 12030.347906 12734.876622 7765.095426 11582.634021 13448.950529 4614.993281 4064.075438 16295.223225 16520.068493 13526.376671 12136.073896 9553.420534 6652.323560 9950.855321 12725.059985 8014.472287 6435.913943 5842.097132 1156.689010 -299.368522 16135.152207 16116.546559 14742.488642 14738.514164 14100.418388 14122.408281 11904.550319 7429.065901 8413.287369 8714.528749 5678.267342 5690.533108 3423.286806 15756.411245 15887.385466 15878.381601 15832.425302 10177.707903 11442.844338 12830.692864 3006.632068 6764.658055 4686.811716 1346.612555 5203.471513 1256.789759 15292.800997 16261.679608 18790.394053 9111.146690 16000.181406 14282.727647 11841.151280 5115.720283 13777.257026 6571.298694 10325.703791 804.503114 2370.740466 15010.800437 15520.177429 16064.513290 12946.258395 9079.774702 11012.693811 9698.148717 10325.628997 10417.462302 10571.399581 5832.199714 4502.740022 8839.912407 14883.542572 14556.865528 14076.905247 11355.084701 12841.975127 12975.634845 13312.516578 13568.874403 7934.057606 2250.162266 10846.597753 2969.623625 1810.481835 14610.505888 14453.958725 14797.906294 14168.673279 11131.887545 7956.418008 8963.313091 16963.883251 6455.182135 9448.526893 5993.516555 2939.425419 5540.055267 14181.134546 15889.011436 17805.721586 17048.552744 10488.849710 11159.490095 10243.486137 5992.588736 7862.421074 10387.401695 3545.312899 3415.060320 -534.586896 13784.596747 17505.139783 19109.578908 12640.795424 10351.976967 12575.875289 9005.392586 12183.934650 4270.051284 11877.468586 8554.716228 4484.682382 3181.621330 13731.936660 14940.362557 13020.074855 10549.245411 12117.146249 11588.403510 10720.202322 11527.357193 5320.036623 9655.408287 8072.015695 5018.500331 1852.500943 13828.212900 10557.069166 4777.575213 10572.122124 10477.290982 10136.788612 12596.235988 2697.892302 9778.342436 6570.329640 3528.833986 8063.566862 2652.590380 13654.388000 14145.886531 13732.058074 13653.573394 11983.536009 6489.875074 6995.236994 10515.461443 8822.239854 6086.016429 8524.822658 8169.519736 849.887918 13402.057581 15553.858661 17676.347608 11412.567271 10581.401721 6828.850503 6493.053803 10919.612755 11720.215125 8806.678368 2635.808911 7840.970956 4344.125275 13491.639044 11260.593132 9201.785775 12962.187481 12470.653497 9881.390884 13094.416867 13558.545300 12285.498117 12644.245961 3786.423538 2735.226980 4911.781475 13537.363616 10654.005818 8965.708918 11278.046512 14696.475114 5926.666077 6041.563263 6903.643013 10285.706801 9704.031033 8972.830207 9959.565228 5262.696040 13503.838592 12524.351436 13190.107870 13900.124851 12269.884267 10702.181206 11608.722310 9871.035645 8582.779150 10112.075105 3778.412033 6416.694747 2655.306059 13599.558486 13691.494766 15995.497993 13292.258366 12588.736084 6675.855521 16202.900138 11096.120889 11365.963734 5123.991547 1682.283268 4703.018495 4417.780800 13666.883199 14106.203160 15248.137037 11035.919965 10162.580681 9409.142951 9204.565444 12064.503517 6085.326891 10338.228666 10493.922525 5878.645539 1297.607802 13631.681991 13859.499436 15413.302279 10698.284510 10898.830789 12079.907967 9405.392259 11195.209642 9022.318849 11695.920541 10903.158723 1604.459943 4570.180137 13514.008314 14707.741328 16806.230314 14347.835356 11261.400809 7775.868135 8070.802889 6433.561823 5785.205376 8387.486122 6906.056703 11295.943033 3678.676226 13598.795005 15763.251203 16232.903048 11137.007557 12033.350429 11572.802560 11336.106825 9258.447318 9750.709335 4552.901288 7006.713258 3712.920146 2522.611097 13768.548898 14275.507191 11414.074001 6595.881468 10850.723827 12230.282932 10324.989762 8031.713760 11699.844332 9746.385769 11359.552638 4206.193883 2572.879773 13624.791993 13627.211768 12109.377212 10776.595523 12267.396332 9815.064356 10394.994193 8324.573372 10185.238632 13010.044361 6759.995424 3588.088997 5013.172717 13058.099101 13576.835866 13672.792940 7669.243180 13297.055446 11135.327643 7896.341485 10265.030368 9479.371507 1015.288489 9369.808849 8668.420450 5063.094147 12377.542636 12984.887283 12365.523694 10558.352668 11205.649477 10718.914370 13850.882914 11708.250311 9499.536013 7111.965603 9496.587539 10223.103270 3761.022109 11793.827631 13129.830736 13805.313579 13313.329000 13731.322968 10359.672994 14052.472372 9534.037788 11214.188881 14603.838506 13703.024611 10988.594655 10056.452652 11310.178308 12785.177389 15244.542165 15478.493707 11460.644540 5987.900699 9335.306866 11380.299915 12679.218387 13547.681426 12002.152015 10863.374260 14100.253436 11124.636298 11329.593546 11763.300669 11841.678837 14205.479533 8481.976224 14877.144475 14622.933930 11651.423326 12151.095896 13797.171495 13114.856919 12728.731167
</DataArray>
<DataArray type="Float64" Name="Velocity" NumberOfComponents="3" format="ascii">