<VTKFile type="PolyData">
<PolyData>
<Piece NumberOfPoints="2177" NumberOfVerts="2177" NumberOfLines="0" NumberOfStrips="0" NumberOfPolys="0">
<PointData>
<DataArray type="Float64" Name="Pressure" format="ascii">
 17805.366590 17470.498454 16818.238548 16003.238771 15211.555173 14476.170229 13770.867214 13054.573065 12250.072336 11250.529306 10060.621074 8806.544697 7508.838650 6103.866934 4663.291714 3472.081811 2696.638794 2260.324868 1990.403026 1760.264970 1509.226407 1217.855948 888.951424 537.848931 185.881548 -145.899352 -442.750250 -700.500752 -922.430286 -1107.982576 -1253.056371 -1358.836476 -1431.042748 -1476.197042 -1499.865639 -1506.281445 -1498.536627 -1478.913983 -1449.182581 -1410.807982 -1365.081251 -1313.188168 -1256.240521 -1195.286112 -1131.308491 -1065.223273 -997.875986 -930.047802 -862.484584 -795.994641 -731.745661 -671.960461 -620.771113 -582.929690 -559.981726 -550.153282 17744.438112 17306.952438 16382.054150 15315.760845 14483.653864 13727.106321 13006.374150 12327.513052 11566.103661 10508.863807 9175.697528 7839.070713 6604.896771 5258.652419 3687.882534 2557.083414 2019.740716 1813.171789 1713.286108 1594.360668 1411.596944 1161.359404 857.431258 521.899430 180.379216 -142.760062 -429.795665 -676.822648 -901.332261 -1098.134444 -1249.190323 -1357.278658 -1430.299445 -1475.760963 -1499.562393 -1506.046468 -1498.343365 -1478.750457 -1449.043037 -1410.689493 -1364.982147 -1313.107265 -1256.176705 -1195.238057 -1131.274200 -1065.198767 -997.851078 -929.992402 -862.304979 -795.400711 -729.879052 -667.086463 -611.293762 -572.528930 -551.259238 -543.027382 17742.790553 17062.829462 15002.881610 13740.396885 13077.775259 11950.289812 11262.651090 11077.967152 9921.274040 8867.220956 8420.097091 6364.862906 4625.270827 3499.177166 1402.192397 1084.378391 1120.366709 1292.383060 1400.606565 1408.579614 1302.584275 1098.372020 822.284090 504.055190 174.220094 -138.655512 -410.635720 -629.037292 -853.643194 -1085.245454 -1246.272113 -1356.787611 -1430.427407 -1476.012906 -1499.810792 -1506.265190 -1498.531834 -1478.912576 -1449.182168 -1410.807853 -1365.081185 -1313.188057 -1256.240189 -1195.285039 -1131.304998 -1065.211896 -997.838924 -929.927066 -862.091361 -794.712361 -727.600528 -657.776271 -589.469532 -552.516210 -536.200434 -531.054272 -546.151206 -528.929371 -522.157885 -500.270511 -494.001864 -490.642930 -451.842535 -450.337812 -448.982195 -409.525776 -409.112037 -408.640659 -370.692632 -370.599770 -370.420448 -334.816869 -334.818582 -334.733100 -301.675564 -301.704944 -301.649788 -271.133932 -271.170504 -271.126002 -243.074111 -243.111506 -243.071671 -217.376860 -217.413055 -217.376110 -193.918057 -193.952390 -193.917826 -172.569413 -172.601668 -172.569342 -153.200234 -153.230351 -153.200212 -135.679249 -135.707232 -135.679242 -119.876251 -119.902140 -119.876249 -105.663491 -105.687346 -105.663491 -92.916813 -92.938709 -92.916813 -81.516559 -81.536585 -81.516559 -71.348272 -71.366522 -71.348272 -62.303206 -62.319781 -62.303206 -54.278685 -54.293689 -54.278685 -47.178318 -47.191855 -47.178318 -40.912093 -40.924269 -40.912093 -35.396382 -35.407300 -35.396382 -30.553851 -30.563612 -30.553851 -26.313311 -26.322011 -26.313311 -22.609509 -22.617242 -22.609509 -19.382887 -19.389741 -19.382887 -16.579300 -16.585358 -16.579300 -14.149721 -14.155061 -14.149721 -12.049931 -12.054626 -12.049931 -10.240204 -10.244323 -10.240204 -8.684991 -8.688596 -8.684991 -7.352612 -7.355762 -7.352612 -6.214956 -6.217704 -6.214956 -5.247192 -5.249586 -5.247192 -4.427500 -4.429585 -4.427500 -3.736813 -3.738630 -3.736813 -3.158585 -3.160172 -3.158585 -2.678575 -2.679966 -2.678575 -2.284651 -2.285876 -2.284651 -1.966617 -1.967706 -1.966617 -1.716062 -1.717042 -1.716062 -1.526231 -1.527127 -1.526231 -1.391916 -1.392751 -1.391916 -1.309368 -1.310165 -1.309368 -1.276235 -1.277016 -1.276235 -1.291516 -1.292303 -1.291516 -1.355539 -1.356352 -1.355539 -1.469958 -1.470820 -1.469958 -1.637770 -1.638703 -1.637770 -1.863355 -1.864381 -1.863355 -2.152530 -2.153675 -2.152530 -2.512627 -2.513917 -2.512627 -2.952587 -2.954050 -2.952587 -3.483072 -3.484737 -3.483072 -4.116590 -4.118490 -4.116590 -4.867643 -4.869814 -4.867643 -5.752887 -5.755365 -5.752887 -6.791298 -6.794124 -6.791298 -8.004359 -8.007577 -8.004359 -9.416251 -9.419909 -9.416251 -11.054053 -11.058200 -11.054053 -12.947940 -12.952631 -12.947940 -15.131390 -15.136681 -15.131390 -17.641381 -17.647332 -17.641381 -20.518579 -20.525254 -20.518579 -23.807521 -23.814985 -23.807521 -27.556772 -27.565093 -27.556772 -31.819055 -31.828303 -31.819055 -36.651363 -36.661609 -36.651363 -42.115014 -42.126330 -42.115014 -48.275679 -48.288135 -48.275679 -55.203339 -55.217004 -55.203339 -62.972187 -62.987129 -62.972187 -71.660463 -71.676744 -71.660463 -81.350199 -81.367877 -81.350199 -92.126878 -92.146004 -92.126878 -104.079001 -104.099616 -104.079001 -117.297536 -117.319673 -117.297536 -131.875264 -131.898942 -131.875264 -147.905995 -147.931219 -147.905995 -165.483659 -165.510417 -165.483659 -184.701263 -184.729525 -184.701263 -205.649713 -205.679426 -205.649713 -228.416492 -228.447581 -228.416491 -253.084204 -253.116567 -253.084201 -279.728979 -279.762485 -279.728969 -308.418752 -308.453233 -308.418717 -339.211415 -339.246655 -339.211304 -372.152896 -372.188584 -372.152536 -407.275183 -407.310779 -407.274013 -444.594498 -444.628798 -444.590701 -484.110088 -484.139803 -484.097764 -525.805192 -525.820318 -525.765196 -569.655240 -569.623796 -569.525447 -615.660535 -615.476544 -615.239313 -663.956292 -663.257065 -662.590349 -715.392989 -712.716254 -710.942198 -770.275524 -760.337832 -756.241913 -798.181024 -782.331873 -775.524823 12629.955762 12277.807065 12355.517766 11128.564037 10090.462639 10999.294659 10520.215205 8496.083272 7527.792894 8286.485485 6984.648285 5402.408348 4992.853567 3424.272961 2328.354680 1722.184146 1158.712476 737.889214 420.371775 176.455364 -16.231186 -175.090932 -313.104472 -439.257971 -559.141405 -675.636405 -789.599621 -900.486315 -1006.886961 -1106.966439 -1198.805665 -1280.651312 -1351.082182 -1409.102507 -1454.173869 -1486.198766 -1505.469604 -1512.596700 -1508.427529 -1493.967217 -1470.307419 -1438.567842 -1399.852065 -1355.217206 -1305.655522 -1252.084941 -1195.344210 -1136.184878 -1075.240757 -1012.912274 -949.015858 -880.179980 -817.523967 -790.287671 -778.642794 -774.590460 12528.804506 12330.639006 11843.540858 10066.038181 9477.737544 10764.603814 9596.028417 8012.825425 7679.316353 6996.380261 5663.855703 4567.314652 3894.959861 3139.017430 2362.657812 1684.983610 1147.347173 735.299482 420.252697 176.879085 -15.815879 -174.804663 -312.938943 -439.174107 -559.099783 -675.605573 -789.557433 -900.419112 -1006.788137 -1106.834906 -1198.644388 -1280.465966 -1350.879964 -1408.891122 -1453.960731 -1485.990416 -1505.271361 -1512.412515 -1508.260014 -1493.817789 -1470.176520 -1438.455201 -1399.756973 -1355.138864 -1305.593662 -1252.041433 -1195.328016 -1136.228045 -1075.450963 -1013.653560 -951.491165 -890.100019 -835.802265 -803.647930 -787.948603 -782.137726 12370.203912 12269.013510 12032.992565 11471.515759 10899.659360 10388.497198 9357.139611 8428.881942 7552.764357 6587.398124 5524.059802 4558.478651 3755.939333 2998.927997 2277.384504 1646.417329 1132.781953 729.802797 417.897266 175.721190 -16.439557 -175.147150 -313.118839 -439.261453 -559.142214 -675.636587 -789.599662 -900.486324 -1006.886963 -1106.966439 -1198.805665 -1280.651312 -1351.082182 -1409.102507 -1454.173869 -1486.198766 -1505.469605 -1512.596701 -1508.427532 -1493.967228 -1470.307455 -1438.567958 -1399.852443 -1355.218434 -1305.659516 -1252.097931 -1195.386460 -1136.322303 -1075.687646 -1014.368015 -953.703223 -896.461740 -847.921333 -814.296036 -795.466570 -787.885386 17827.263653 16646.967090 13176.812963 12726.882208 11925.634771 10293.923973 10046.422173 9723.447485 8821.784303 8172.674437 8267.269904 5409.545426 2471.771187 1084.989842 -3251.686310 -639.974988 809.832043 1141.551891 1314.893609 1358.636306 1273.688675 1081.875416 813.118455 499.293816 172.344686 -137.863580 -404.220921 -604.317290 18169.480893 15514.412934 10507.472115 10591.589318 8472.585281 14773.976167 14241.060747 15034.622847 14515.021671 19771.325563 16618.755134 17875.201704 17661.654085 16270.245803 11079.800238 14741.471499 11204.784291 16035.541944 14037.320930 16442.774723 16653.064434 16635.735437 15712.784110 16215.742440 12099.288494 12545.687732 4546.789968 4827.360542 18544.938697 16441.812117 14692.974053 12278.256788 11321.253986 16208.395082 11920.660182 16584.716868 13771.188703 7730.613624 12560.350427 11271.335175 13982.885618 16902.329608 9673.801582 12486.814949 13229.539046 12684.971592 15985.460276 11306.038821 15237.602081 12137.737204 14729.986657 17510.555004 15611.114004 13238.572543 16149.458597 15520.262030 18754.272808 18039.288614 20296.001733 12830.713824 16407.002545 10333.987759 8929.099931 13188.473241 18751.806016 11062.833848 2957.485289 8975.279962 14871.737238 12359.595984 16972.822843 12871.820894 10248.673208 8827.069236 13112.810400 13588.296302 14511.991042 8546.890603 8558.668681 12942.002042 13002.873555 7905.853648 14345.913473 9108.699677 18936.607273 15505.524502 14884.859655 15757.698163 14244.071162 12603.043916 12828.355940 7339.550353 16322.215832 6358.819270 9752.798671 17564.970551 13622.572179 13603.360295 4602.880385 6796.971113 12015.765375 11655.431440 11479.088229 13528.849915 4173.345253 12576.749906 8538.746523 7873.177749 6373.030246 8714.114287 2125.537016 9633.601423 19126.766253 16148.431329 13998.509161 13974.795922 16189.283795 9127.736929 20955.319438 10357.054079 13147.500159 10736.611489 10112.993193 9670.146820 10253.609386 7582.977745 13717.878495 10814.501171 12532.273521 11548.432997 14052.281659 15000.147269 12764.852802 17693.832896 14313.495700 11495.694312 12783.736660 6632.780318 8351.522719 5389.173942 19202.166217 19639.357096 19493.412083 15878.580615 9043.035533 11838.630051 5652.831406 8152.976912 18455.777917 10451.116447 13153.218996 13216.637083 14679.106059 15681.715724 15196.310907 8248.808465 9063.069538 13510.016397 7888.319645 12383.975877 5694.225702 15910.808986 11655.673734 13684.218684 5870.753986 10606.178335 7289.722736 5562.373921 19185.986602 18517.266570 15217.309614 20189.763495 16763.126174 16914.429930 18587.708207 10872.315960 9597.315657 9059.112490 15292.253612 13934.483994 10879.417526 8353.147856 12464.245792 14645.407173 10270.840050 15845.420519 6832.313919 11373.469484 16145.005699 12518.959943 6208.214559 7448.476432 10450.099834 6920.580826 8072.092754 9234.017953 19340.784224 18490.353624 13330.273293 18752.054233 18061.914972 15871.224165 14597.545224 14851.499443 9631.322833 6237.630483 9634.445390 12052.142900 9630.056430 17068.530416 10219.523942 5594.698613 9775.042506 3396.362007 7194.346506 3667.775943 7726.579184 11487.371082 5951.710617 12371.217403 8374.193811 4963.323047 6155.423190 7797.747345 19298.623560 19009.408939 14939.999185 19579.340545 17519.102008 12384.901577 20385.601531 13514.249104 3741.191587 15691.207673 4913.024381 10411.793392 5712.849293 8372.359067 6749.729888 9590.546348 10743.776065 8029.640819 12054.944999 8589.658130 10556.419428 12590.428347 6439.049971 12872.819646 15188.448370 10012.310407 3562.311333 5095.916696 19176.155654 18337.739470 15668.692846 14423.306931 10657.102299 14097.984911 13945.032483 18528.851478 10048.744130 13864.385548 9183.267422 9435.724759 11924.881728 8379.627418 11726.029404 3647.988416 4555.557546 10167.254081 11195.476864 9882.095022 9788.083230 8778.199068 6642.681609 2862.066563 14763.916403 6143.486407 3780.714637 1483.421527 19031.539120 18512.821448 17380.466915 14783.875408 18000.951837 15862.939860 14338.137877 10728.496585 10036.489898 11980.726983 7443.441795 11811.460801 13504.959406 11092.194143 13450.788295 13940.969242 10860.345772 12153.761472 5582.382599 7260.247704 4430.208614 5058.017182 8571.452373 10669.458371 5902.362500 13485.000757 6130.751267 1887.179130 18706.648134 18547.999487 19950.695617 10782.975832 17025.756882 11110.239513 13586.103440 10968.966731 9287.414838 14757.989983 14106.491026 6082.906703 7752.415433 10546.443996 9401.627128 10914.614701 8706.637087 3211.050169 12100.493154 10287.285445 11901.465340 7801.945240 9757.775616 8023.294612 8382.135776 10507.038297 1151.979119 12486.347873 18532.754417 19146.146570 20484.147696 15617.599483 18027.270933 10957.851778 16509.789210 14775.616059 9300.441182 15034.836946 17625.934022 5494.747573 7798.283510 4396.386038 7406.062023 5640.860280 5401.890624 3388.319203 13294.883714 9542.949174 14834.383436 6052.833634 11124.429180 6854.208696 9953.952086 8074.170434 6767.507187 5050.061173 18540.406150 18838.923775 18893.223855 12291.027069 17484.673489 15765.849276 10744.512205 13829.834921 5495.744288 17365.496706 14515.899795 6035.727126 7479.971233 2899.144308 6323.041798 7846.224921 4468.672084 4638.444648 5921.953585 7979.144171 5501.906438 2313.266579 5382.276978 3598.297213 4429.132323 5285.311341 3399.610523 2590.661520 18223.280369 17121.125155 18482.520494 17877.478974 15942.300244 19427.134257 13262.230120 15848.677182 9433.901942 11880.143620 13328.635418 8193.245752 2941.118208 18019.188189 17215.724414 21236.859073 17675.526501 16726.587384 11403.235357 16857.923565 10478.266320 16865.034025 9590.656057 4239.099654 7667.987258 5749.306865 18171.192625 15379.551529 14777.582499 14177.679023 15630.592845 19574.133643 12112.683989 13948.802716 4890.456559 9272.893907 6243.809177 4822.813419 5142.071511 18049.437268 14623.427070 11885.560297 9687.649021 14342.816354 9942.628355 12763.968592 9387.192179 10939.414337 9242.549767 7871.715777 12786.019170 3192.526102 17858.897917 18140.901960 23623.373960 18440.260348 9142.832950 8835.246718 12926.537500 15644.629955 13176.953362 11887.046012 7297.239796 7724.733905 7607.383161 18130.842286 20366.060711 25791.328415 18768.834393 13568.459747 15456.900095 13749.056329 13746.667792 12996.265695 6726.928625 8004.458720 4098.232209 3333.078363 18628.823943 18586.555340 18138.767769 14913.785966 18087.764963 12773.628420 12312.967394 9477.565536 9336.332796 11005.890220 6080.493942 9780.756835 7211.216050 19118.197518 17963.119152 15383.925588 19170.508445 16378.091250 15877.160255 7292.119144 7578.522722 16194.858411 8475.724372 9378.724692 7004.754662 5640.137765 19255.332513 19163.347886 17241.566234 17612.157932 13309.573122 16267.207850 10000.241835 7915.521760 13887.174098 8493.467142 7872.518722 5877.480113 5921.018555 19149.981919 17929.040400 16411.655301 11113.959185 18180.435464 16404.535233 9647.020074 13930.909546 6640.447119 6094.059739 7900.423322 2748.770455 6144.943290 19287.040476 20043.461440 22623.982255 19359.300880 18612.390292 15399.266195 17331.312402 6752.394202 6078.892231 6912.650683 16628.517512 11480.388120 7629.892791 19185.948580 21049.395726 21500.382711 14562.857483 13339.482578 16842.781881 5248.483344 7117.365549 8524.903769 14222.741584 6562.697156 10031.516001 4897.782177 19141.339958 20011.262474 20780.274451 17537.276392 15257.932702 15196.125918 12756.788175 13213.320467 8844.345963 5200.119417 13532.457431 8079.301699 4705.645480 19286.976581 19477.404099 17970.090965 18493.418178 7403.472647 13671.039375 6891.321079 4973.081050 12610.952712 15446.882329 10525.804435 10770.444485 7833.337008 19229.077517 19754.880523 17432.513268 8838.791386 16476.300736 14420.123449 8534.841927 18311.975387 6210.454259 7895.909333 6954.612812 10239.625150 8811.563681 18843.088126 17611.804432 14149.432113 15884.109959 11804.086104 12882.259985 12838.724835 11513.290836 11622.304609 8751.252838 6407.471666 11941.185594 5144.059121 18582.605364 18612.396949 21002.987525 14440.326964 11083.555195 12958.863561 3302.859704 12938.537518 6916.556070 15522.536550 6175.143613 6712.040453 3783.815866 18749.814831 18380.454325 18882.768908 15994.646371 15900.937227 14232.479932 6946.936914 14394.196502 9361.385520 12000.188291 10690.932112 6025.801371 8725.961170 19141.822522 18382.475153 20407.764422 16848.865905 12908.201016 11848.692971 14145.531863 11282.918372 9368.139830 10903.791266 6831.374453 8830.585658 4031.896747 19579.804466 19070.663510 16598.883255 14762.839152 16229.317442 9072.967569 7074.482293 11924.135660 7519.033854 11819.985869 5358.744989 6774.075980 8274.838892 19834.195064 21289.321197 19857.850113 11982.214335 13875.292215 13215.750262 11386.193723 8235.077637 11469.375436 4058.642965 5676.000930 7919.495575 3268.715702 19796.138292 22778.794081 23491.187127 16621.166239 15453.072331 15771.797528 11664.306361 12492.851421 8309.607702 9215.368985 5908.733472 7969.855268 5082.568226 19674.095018 22552.421577 24326.062656 20507.803782 13678.031147 13371.511277 13605.093663 11118.740916 12075.485071 10353.162612 9351.925303 6289.248463 3227.303002 19734.131935 18977.661272 16564.749988 12520.519584 19922.517123 12752.906698 12791.586210 11221.561089 11892.816031 12900.353952 8988.475382 6125.813247 5607.347293 19716.644784 20117.949106 20320.034017 11771.463220 16970.519922 17771.262248 13608.137725 15156.864622 15479.109000 10020.974467 6048.139784 10461.881351 6381.810120 19605.990135 18784.937250 19257.789689 19647.070082 15898.504934 5801.786014 15275.240704 16893.312587 8179.165274 5880.412934 6981.716673 6864.818804 14326.274073 19503.187354 17960.049195 15603.213359 11251.654357 16219.346121 15213.242014 9688.779782 9449.027084 9588.363590 7459.717962 7972.077132 5811.416166 7314.819612 18977.850881 18343.263740 17709.243528 11909.777185 11216.403787 8383.095688 10023.306654 10655.452512 8836.269510 10175.026221 4377.997939 8086.760901 5247.392927 18541.177838 21658.696957 28911.035310 17031.228654 16404.648199 15545.712210 10428.565271 10137.999920 9200.722856 7075.406140 8714.113195 7710.893421 6207.090456 18329.559692 20506.214239 25419.087102 13936.080594 18484.475887 15880.286318 17265.822270 16218.533638 10830.613246 10279.247458 7983.352325 5981.989063 7821.726723 18312.986329 19274.729708 22042.798406 15424.135488 8768.379970 15647.463789 11099.335423 11191.971080 9715.883735 5635.974409 7183.734156 5816.878983 7191.102579 18554.083178 19981.040977 21103.899323 16917.960414 19206.994380 10790.480111 15755.620156 7769.585168 7068.470767 8273.709825 3027.545206 7921.347953 4006.301711 18953.251793 17936.650376 16403.020686 12806.694408 12832.925131 12810.301796 8566.475494 4061.200664 4427.231233 6618.678790 6880.948702 11037.667439 5214.277627 19329.654867 16902.875956 13433.670514 17370.467854 17447.749925 11599.108312 8908.389842 12100.696125 11754.240071 10820.847544 6290.666199 3009.635145 4193.427591 19340.121363 18932.815423 16641.074822 14310.533080 17524.243827 14232.124634 9918.850851 14088.812489 6251.692931 6964.447984 6189.665993 4249.174607 7647.427201 19082.634513 19553.397243 18438.250657 14074.695372 8719.631743 13906.464635 18463.228937 7975.224805 11744.571195 9211.310956 8660.942999 6714.543331 4894.051478 18957.877084 19719.429656 18480.236290 17301.822131 15052.597973 13299.135964 12120.704677 5968.595314 9724.118548 12406.221757 10111.761386 4873.703199 7792.510398 18863.726582 18913.758598 16569.778205 13820.681638 14574.994593 9381.981757 14745.124527 8545.488050 8998.081700 9896.448997 9126.446200 7386.671082 7377.595166 18841.287043 19114.059820 17371.242782 18088.234291 9860.111748 19087.176802 11160.612429 10364.241870 8999.591519 7673.099191 6193.962924 11371.362883 4202.011334 18660.807241 18863.521333 15547.359476 13882.515480 14239.287744 13745.046023 12265.115312 8568.459243 7804.682033 9016.959440 8055.279230 11164.176779 5810.230502 18039.598945 17425.224672 16385.192919 12373.066611 12019.913104 15009.633755 13580.433701 10387.526274 8489.319727 10168.887432 8440.070495 11402.923385 6820.666601 17452.459474 17971.895120 22056.762925 17387.921968 14790.245612 9402.882176 12509.597980 6553.640202 13596.534160 7728.726249 6185.862931 5942.479321 5694.975428 17339.796870 17786.968415 22032.822424 15836.422295 17256.977864 16233.222015 11067.513548 12434.521962 11507.911232 6624.238303 5195.000002 10842.757365 4971.746953 17304.223354 18165.245855 18497.389254 18063.902862 12942.727673 9309.989911 14258.333080 13913.324418 11269.056103 9817.336731 7966.390602 6947.655931 7953.362180 17244.388471 17943.181431 16874.922372 14691.690338 14837.799898 11018.118851 11826.490445 12292.294987 9826.569960 5076.862631 8414.160461 5450.772326 3272.357383 17420.772707 17158.454382 15105.383533 10985.735990 14300.444993 9711.590380 7240.741056 7003.781680 8074.324869 7974.583991 11088.236331 6206.739662 3285.665138 17495.634636 17873.162722 16763.488353 13630.814225 12069.118008 14453.447584 9283.511542 11031.001592 4361.991026 4796.315540 6742.048456 5132.303744 7897.019574 17294.311831 18091.751264 20475.159332 15163.011898 9492.211023 12550.822395 6798.485731 6393.907430 6532.644748 7569.961701 7207.396376 10841.426392 5174.172333 17315.254884 17357.811820 17769.980396 14902.768142 9151.898927 15602.857874 8358.846998 7863.923161 8175.009869 10276.653487 5509.652490 6442.132844 4255.453334 17425.077373 16794.414639 13852.521435 15452.440771 15838.797899 14536.824268 8030.588403 13124.200015 12771.068044 9835.598450 11771.777575 5100.874084 5303.578364 16971.302310 17382.622980 15947.589114 16934.562088 13685.197311 17258.844136 8777.908525 11007.624567 10177.066519 5296.191039 11631.480188 5329.902375 6123.750179 16277.166282 15766.019942 13577.103409 19213.506415 16106.713058 8855.741031 11982.627459 8766.366609 10105.299186 6796.676320 4996.440576 8404.703600 6406.130234 16004.310575 14451.285627 11361.866674 10286.289192 16978.603437 7629.211007 8399.906312 9818.010263 13109.064987 6062.595574 7355.253641 7564.197454 5404.051631 15769.117040 16052.115052 16123.475899 15140.641888 11839.988890 13900.040604 8098.082702 10773.804805 10268.189258 9221.438379 9964.401982 11238.578150 5658.908784 15618.120000 16868.905255 18666.023779 16033.108242 12332.802822 10815.164828 11194.838971 8666.758208 5994.195992 8154.920960 4046.625206 10801.465667 6523.081529 15859.892901 15472.315440 13366.619247 17237.111690 11972.138052 14498.263100 12276.263509 8379.187672 11739.521840 10280.446942 10817.300704 5284.863425 8842.826159 16181.069756 15492.710901 13380.600570 13005.951397 10667.817779 11682.049187 10315.000374 12361.369838 8749.161853 9334.808313 9139.094018 9036.452040 5279.952132 16248.384604 15939.946054 14526.260457 18927.974071 11506.161670 14681.895431 19003.285922 16055.161915 12180.807932 11712.235612 11977.088849 8415.110422 4874.157339 15983.907805 16414.892514 15590.435882 13034.620842 9442.577236 8283.520878 10412.525163 14296.066571 8508.860037 9069.640078 7575.946966 4208.410953 3877.777568 15573.577306 15157.564345 14771.133126 12279.901819 16399.122232 12211.902929 10775.720805 13842.890020 9292.588605 11538.310569 5850.683967 5996.230734 6658.471524 15274.375507 14169.129863 12892.429915 15165.800147 8436.730482 15209.123937 11492.855680 6473.700720 8183.709354 6348.002004 7339.931826 7510.024620 4550.407859 15215.088945 13944.000664 11716.332918 11588.169383 11296.225775 11144.868269 12825.519017 3041.179363 8139.531431 9809.896275 10001.270763 6523.654548 3836.410484 15369.782459 13941.930162 11167.242241 15153.550790 9849.594504 11507.357533 17531.541923 9603.330063 11816.439831 12128.327079 4868.106626 2512.899419 8617.883932 15410.357881 14857.265056 14139.416751 13280.024726 9450.707638 15949.020744 15660.507985 11568.724203 8529.752055 5245.461813 9970.603202 3478.963922 5101.693099 15232.755873 15305.588406 16980.851135 16791.491995 12681.477692 8668.468523 6376.230977 8632.684670 9148.253726 9750.896196 9482.655026 3516.622553 7604.005927 15107.426580 14113.064028 13728.923213 13429.227122 13536.324202 10153.842463 11332.130185 9966.607402 11473.078531 7455.818770 6499.832247 5923.971029 4575.814688 15016.948167 13325.013516 10888.058452 15446.594639 14697.796669 16210.994570 13242.621199 13704.036120 9375.587142 10537.470649 13847.153561 5234.133605 5334.405208 14861.793638 15002.521102 15028.030054 9818.780959 14105.255650 12675.745733 13987.748234 11069.091027 6206.283951 13173.833605 9442.466534 9795.930583 6273.711546 14879.025645 14997.557330 15310.132645 12209.052943 7241.252607 9707.366030 12306.969298 6317.328938 10415.396391 10752.204980 4594.345577 7674.789044 3773.407244 14962.092011 13834.082480 11512.433062 13947.569800 13673.492161 14088.301316 10329.636522 10473.119640 15158.800116 9521.286519 5988.384165 8955.963413 5688.738892 15011.711048 14278.993975 13294.848157 10914.188334 10155.801580 9297.285199 9910.678931 13286.039409 9475.549809 10961.133223 4906.202166 10981.817180 5277.273064 15022.871030 14375.041524 13946.162348 14976.230993 7864.765870 9522.746969 11417.735031 9214.394082 13539.186571 8945.230983 7573.603828 2877.639286 7341.459702 15005.955410 14044.333454 12300.555831 8504.423117 9266.674740 11778.044275 11248.787570 8343.384628 13072.661267 9236.441030 10128.897909 13021.611981 4501.846355 14839.246184 15757.644485 15553.750448 13286.751191 14014.742085 12104.330459 10360.140752 14560.860606 10660.845131 10648.259882 12002.359448 4284.995611 3244.889662 14617.443480 15808.239264 15354.904410 12282.041500 10552.077101 11079.190700 12788.485896 11689.234259 11149.335854 5305.641223 4533.392176 10363.378524 6489.094709 14626.926206 14632.404434 12597.934977 12206.648643 14965.647433 17149.725130 10316.193229 12679.784814 6576.534882 11590.164354 14593.131793 7616.218693 5791.846896 14722.483422 15764.943590 15349.110975 13379.891158 10710.677171 12863.877330 11856.131602 11771.665264 7408.247797 12349.615676 9064.839685 5026.410606 4787.840540 14870.074742 16358.344784 14729.613294 11156.521284 13981.791070 10391.900118 11297.497756 11940.275783 9213.450407 12308.298036 8279.924400 12156.568272 3761.310870 14852.596467 16015.414363 13707.874628 14284.396154 12195.648461 15968.373666 13732.272822 9927.829811 11934.560748 9960.470119 9855.701984 6753.304709 6024.776109 14443.145345 15315.983215 15035.930784 10446.842883 11264.580166 15559.071169 12354.288788 7033.628016 11007.390826 13942.307487 8305.837190 6066.075444 5159.243303 14122.601022 15427.250749 18136.152966 11103.396425 10477.084083 12143.752132 10667.694047 9672.880719 6725.532575 12066.644453 5215.728370 3853.438748 3975.237532 14048.663499 15328.270732 16412.159420 10731.876901 13739.931259 14442.784317 11825.990316 10178.218037 11625.119451 4072.902849 8068.146962 9493.511086 8466.792977 13942.831030 14234.088411 13020.190379 9401.289568 11234.324638 11986.979649 13731.127626 11652.264565 14041.736499 10891.239329 10912.142779 11244.889132 6647.956869 13425.997608 12967.126145 12303.280161 12937.021519 13451.998012 13828.103121 13174.740047 14974.126644 13336.090286 14124.342527 14416.141440 11054.502002 11904.566268 12826.549122 12510.187934 13786.659316 13408.051467 12805.857624 13393.807218 10408.524332 13868.936010 14651.532416 14272.555008 13510.745027 13119.254380 10431.744290 12629.955762 12277.807065 12355.517766 11727.977670 14149.823417 11510.183473 13524.135130 12311.218145 14056.653086 16142.196318 13353.378592 14678.070186 13381.918280
</DataArray>
<DataArray type="Float64" Name="Velocity" NumberOfComponents="3" format="ascii">