<VTKFile type="PolyData">
<PolyData>
<Piece NumberOfPoints="2177" NumberOfVerts="2177" NumberOfLines="0" NumberOfStrips="0" NumberOfPolys="0">
<PointData>
<DataArray type="Float64" Name="Pressure" format="ascii">
 19758.130941 19791.101625 19704.461803 19461.988450 19159.213782 18802.831453 18214.200836 17333.865129 16261.032122 15094.354593 13868.017992 12650.740992 11464.631206 10389.089863 9409.330392 8337.769143 6932.602537 5086.024730 3077.398534 1700.624044 1304.930074 1385.292445 1360.530797 962.352834 241.103283 -561.876024 -1186.544827 -1586.464029 -1902.180487 -2206.132687 -2411.941077 -2444.839700 -2337.161335 -2161.518722 -1967.358684 -1775.750473 -1593.648630 -1423.186781 -1265.034674 -1119.306281 -985.805382 -864.128784 -753.734657 -653.993389 -564.224454 -483.722002 -411.772555 -347.669701 -290.735205 -240.370328 -196.202392 -158.420178 -128.156565 -106.785935 -94.142882 -88.728737 20313.430229 20360.486862 20305.165904 20197.502549 20052.076625 20014.110917 19465.925653 18231.263770 16932.136717 15856.463942 14579.254992 13303.768375 11957.867903 11010.408302 10436.975817 9539.347228 7948.334003 5738.601294 2638.862543 1083.271141 1160.780298 1536.644792 1609.725252 946.529598 3.953600 -693.496066 -1175.063106 -1615.377544 -1895.770340 -2146.004248 -2360.731570 -2421.663568 -2330.095808 -2160.007391 -1967.233394 -1775.902094 -1593.850497 -1423.398010 -1265.245573 -1119.512253 -986.003386 -864.316800 -753.911432 -654.158154 -564.376557 -483.860160 -411.892766 -347.758704 -290.749624 -240.173117 -195.384478 -156.182979 -123.881575 -102.484140 -90.917026 -86.318450 21064.710954 21197.949836 21751.054039 20992.238424 22101.922525 22551.790611 20410.136290 17807.917832 17033.786392 17019.317298 14526.514292 14712.192835 11569.690217 11476.971579 12636.686089 12588.158858 9040.905279 6999.279775 1047.233025 -330.804614 1490.403259 1205.367077 2881.232296 196.824806 -1087.734954 -757.665034 531.083871 -1356.951404 -1964.490247 -2100.527731 -2318.628406 -2404.017727 -2325.143094 -2158.881972 -1966.910868 -1775.693273 -1593.644647 -1423.187426 -1265.035090 -1119.306427 -985.805418 -864.128755 -753.734517 -653.992914 -564.222885 -483.716833 -411.755536 -347.613678 -290.550886 -239.763156 -194.222212 -151.539020 -113.578871 -94.089711 -85.422931 -82.320272 -92.424385 -83.590818 -79.776059 -74.662549 -71.546844 -69.668054 -58.604100 -57.853735 -57.135474 -46.573970 -46.374879 -46.124361 -36.962371 -36.921355 -36.825593 -29.204890 -29.207641 -29.163247 -22.945807 -22.959180 -22.933132 -17.918662 -17.933033 -17.914805 -13.905420 -13.918199 -13.904246 -10.722747 -10.733443 -10.722390 -8.215918 -8.224641 -8.215810 -6.254975 -6.261988 -6.254942 -4.731605 -4.737186 -4.731595 -3.556312 -3.560716 -3.556309 -2.655798 -2.659246 -2.655797 -1.970560 -1.973239 -1.970560 -1.452711 -1.454776 -1.452711 -1.064044 -1.065624 -1.064044 -0.774330 -0.775530 -0.774330 -0.559854 -0.560759 -0.559854 -0.402162 -0.402839 -0.402162 -0.287013 -0.287516 -0.287013 -0.203504 -0.203875 -0.203504 -0.143355 -0.143626 -0.143355 -0.100326 -0.100523 -0.100326 -0.069755 -0.069898 -0.069755 -0.048183 -0.048285 -0.048183 -0.033066 -0.033138 -0.033066 -0.022543 -0.022594 -0.022543 -0.015268 -0.015304 -0.015268 -0.010274 -0.010299 -0.010274 -0.006868 -0.006885 -0.006868 -0.004561 -0.004573 -0.004561 -0.003009 -0.003017 -0.003009 -0.001972 -0.001978 -0.001972 -0.001284 -0.001288 -0.001284 -0.000831 -0.000833 -0.000831 -0.000534 -0.000535 -0.000534 -0.000341 -0.000342 -0.000341 -0.000216 -0.000217 -0.000216 -0.000136 -0.000136 -0.000136 -0.000084 -0.000085 -0.000084 -0.000051 -0.000052 -0.000051 -0.000030 -0.000030 -0.000030 -0.000016 -0.000016 -0.000016 -0.000005 -0.000005 -0.000005 0.000005 0.000005 0.000005 0.000016 0.000016 0.000016 0.000030 0.000030 0.000030 0.000049 0.000050 0.000049 0.000079 0.000079 0.000079 0.000123 0.000123 0.000123 0.000187 0.000188 0.000187 0.000282 0.000282 0.000282 0.000418 0.000419 0.000418 0.000610 0.000611 0.000610 0.000876 0.000878 0.000876 0.001236 0.001238 0.001236 0.001711 0.001713 0.001711 0.002316 0.002319 0.002316 0.003055 0.003057 0.003055 0.003905 0.003906 0.003905 0.004794 0.004793 0.004794 0.005566 0.005560 0.005566 0.005929 0.005916 0.005929 0.005380 0.005354 0.005380 0.003095 0.003049 0.003095 -0.002220 -0.002297 -0.002220 -0.012535 -0.012658 -0.012535 -0.030767 -0.030957 -0.030767 -0.061133 -0.061417 -0.061133 -0.109609 -0.110025 -0.109609 -0.184495 -0.185091 -0.184495 -0.297120 -0.297959 -0.297120 -0.462687 -0.463848 -0.462687 -0.701275 -0.702855 -0.701275 -1.039000 -1.041117 -1.039000 -1.509331 -1.512128 -1.509331 -2.154555 -2.158201 -2.154555 -3.027370 -3.032062 -3.027370 -4.192569 -4.198530 -4.192569 -5.728782 -5.736268 -5.728782 -7.730241 -7.739532 -7.730241 -10.308489 -10.319895 -10.308489 -13.594013 -13.607866 -13.594013 -17.737729 -17.754384 -17.737727 -22.912285 -22.932114 -22.912281 -29.313158 -29.336545 -29.313144 -37.159504 -37.186837 -37.159460 -46.694787 -46.726436 -46.694643 -58.187186 -58.223444 -58.186715 -71.929841 -71.970747 -71.928304 -88.241141 -88.285891 -88.236124 -107.465636 -107.510675 -107.449260 -129.977590 -130.010366 -129.924136 -156.193866 -156.172187 -156.019419 -186.619245 -186.401220 -186.049967 -221.998200 -221.096932 -220.142224 -264.025861 -260.543047 -257.944853 -314.929027 -301.844013 -295.687790 -344.044217 -322.208342 -312.374253 11478.002208 11483.362539 10296.937110 9893.028171 10243.881975 9642.089189 7948.692553 6723.294610 5360.610756 4273.456304 5558.812526 1662.887069 -2874.956383 -3613.146386 -2949.725099 -2740.911673 -2748.513518 -2873.285083 -3035.492609 -3197.622562 -3344.827959 -3471.283826 -3574.543378 -3653.407923 -3707.024450 -3734.507856 -3734.936174 -3707.636769 -3652.610529 -3570.903252 -3464.774042 -3337.600491 -3193.553096 -3037.134466 -2872.701319 -2704.073195 -2534.293677 -2365.562828 -2199.317383 -2036.407658 -1877.310968 -1722.328599 -1571.731285 -1425.839274 -1285.041363 -1149.768633 -1020.441650 -897.403444 -780.829440 -670.540736 -565.528288 -460.398576 -370.742087 -333.226682 -317.011277 -310.763442 11335.583245 11104.601069 10013.730401 9829.239779 10828.252538 10590.796693 8033.659451 6296.954000 5520.689341 4245.450650 3307.292791 1529.791352 -987.597123 -2171.767807 -2489.371231 -2572.891077 -2691.911210 -2854.599733 -3029.161604 -3195.281730 -3343.786232 -3470.668584 -3574.067041 -3652.971738 -3706.591398 -3734.064246 -3734.481739 -3707.181853 -3652.173135 -3570.504580 -3464.433478 -3337.331470 -3193.360815 -3037.015748 -2872.646303 -2704.068111 -2534.323868 -2365.615279 -2199.382311 -2036.479046 -1877.386185 -1722.407469 -1571.814983 -1425.929466 -1285.140057 -1149.879728 -1020.577190 -897.604534 -781.235177 -671.626428 -568.873035 -473.656149 -393.825284 -348.100457 -325.878249 -317.285901 11261.821484 11073.987098 10444.074902 9643.643619 9158.615654 8692.926740 7648.709843 6738.423813 5831.622138 4699.445902 3411.641805 1772.883246 -70.783557 -1414.776814 -2088.497858 -2412.549487 -2635.314084 -2835.903867 -3023.207848 -3193.538431 -3343.450593 -3470.813955 -3574.382271 -3653.352892 -3707.005890 -3734.501708 -3734.934168 -3707.636111 -3652.610301 -3570.903162 -3464.773998 -3337.600465 -3193.553080 -3037.134455 -2872.701312 -2704.073190 -2534.293674 -2365.562827 -2199.317385 -2036.407670 -1877.311011 -1722.328742 -1571.731752 -1425.840807 -1285.046388 -1149.785090 -1020.495537 -897.579866 -781.406742 -672.432942 -571.651875 -481.890156 -409.159026 -360.288453 -333.289160 -322.298758 21368.476104 22351.296772 24691.071809 21337.134237 24401.288396 24339.137567 19076.056938 16858.432982 16329.263686 17738.697266 14249.208897 17617.577427 11422.364970 11699.591541 13457.268573 14785.145873 9503.442019 10973.525097 4946.210028 2014.012911 2354.796503 988.335103 5049.398028 -377.176480 -4076.024123 1914.666002 7445.237131 -1726.933310 21931.312684 24344.772628 30573.878113 27887.929067 21381.203759 23224.881067 29035.500642 24658.962749 27628.570263 23998.098122 21945.702643 21870.385130 24554.389020 25841.610376 21205.340543 28841.120056 25262.612353 23783.426637 23674.015514 32537.562541 25027.487474 16711.880182 19572.850516 25749.869524 16662.290037 26427.683242 14156.078444 8564.049090 22742.144136 23743.637693 29173.308350 17461.523499 20235.668714 23013.586350 20911.916854 25560.670158 26290.890990 26290.196105 18152.040978 15364.168240 20455.749964 28992.028916 24136.217794 25871.943352 17095.050127 20051.938121 17918.651245 22183.728085 18808.682300 28219.274021 24183.265607 21671.768172 24385.708541 22438.079230 20390.043657 19295.397830 23720.448222 25734.445227 27085.697502 21787.290472 25459.315812 16591.980611 17986.920505 25720.722911 25707.814503 12575.756610 2332.368077 14147.891746 26143.351884 12661.476479 18579.882366 19213.850498 17809.544545 20281.328170 22724.078513 28575.468003 21721.339623 12657.896814 21833.534827 17939.027686 24766.069749 14620.208598 24436.629370 931.217512 24482.713240 29186.651522 35759.302505 25864.759725 10650.683929 23472.565506 18345.418101 7201.294280 20437.374160 14126.489742 20855.116639 23032.525809 26036.799124 19315.623727 7680.771483 10289.644008 19443.159197 21530.191351 4535.361080 17626.681320 2109.484389 15126.782830 20103.685138 2983.522505 7595.699099 6112.999912 7512.652016 17659.071523 24619.064469 24450.795801 24099.392066 21846.746323 25147.324498 22397.962525 22894.849998 20712.475960 20847.094879 13610.649283 17457.547859 17392.077186 16491.841643 9765.571819 13858.520558 20724.149710 13763.694071 15088.460619 17176.196804 18889.004892 8471.744955 19995.191556 15005.187252 23601.783703 20450.051313 2509.043310 11915.306178 8967.903350 25001.469557 24319.232591 22149.629278 22461.098088 24337.746241 20964.438131 9184.666835 12254.634987 13789.323324 21550.302441 16636.928919 23008.077201 23830.557996 18271.472537 21043.199729 16898.152082 10435.901881 18807.446893 14700.947753 17013.225757 6733.532701 17418.246551 18334.710855 12064.681469 8894.822955 15740.017515 2709.999598 -2515.257201 25220.979880 26236.440667 25299.660811 22944.819962 22761.670943 18589.890926 19715.800563 19864.494857 17322.568674 21282.955438 13769.949681 20505.691683 6687.054925 12625.255666 22268.420040 19887.652546 18264.677852 14519.891266 2759.893063 10928.977782 14336.953462 13830.372751 8847.707982 4162.155835 15242.159413 2156.959024 2613.226418 -2225.111721 25055.431765 26029.185695 27907.697830 26210.287808 22809.144355 20379.406874 21553.955688 22134.433279 14389.953919 7252.271987 12256.520182 21071.643152 19409.818145 25857.470340 9704.693245 8722.338207 11200.104289 9160.989696 15877.920786 4005.583414 17379.181523 15921.374621 2611.681297 8455.903045 6693.381200 4584.673701 10794.188861 858.321224 25108.374650 26288.862658 30361.889993 25903.102403 22388.899413 16379.758603 22208.802529 21833.489915 11698.218597 10646.818766 4511.659898 6388.507174 9844.231285 9395.791533 2053.735642 12915.686806 9088.730234 7435.271267 11372.922472 1432.171613 15586.799388 22114.758872 11103.541474 2315.205281 14803.762001 10542.277661 4162.633114 -7361.548341 25339.218686 26302.804301 27641.589991 24612.149059 21219.620476 21325.612157 20607.152680 18983.658837 16327.826634 21571.223456 5359.229917 17614.438001 9313.650840 13522.308090 19488.150757 8383.646885 5241.185167 11451.056014 14027.599199 8301.273170 10438.962840 3961.703269 3612.193555 9350.248834 13313.208028 7586.857295 2390.341232 8010.915363 25592.254026 26175.236235 27228.006384 24743.765849 15877.795521 20197.255787 23293.371072 15022.173606 9002.328500 7569.873355 7416.475408 11782.442233 16508.366443 11528.204204 13183.226697 18898.271866 15876.450242 17361.814271 2534.826848 6240.638679 3036.856243 2368.628201 10622.566574 12156.624023 7352.075899 9989.623311 2406.746647 595.715870 25396.292372 26310.661254 26777.750999 15713.975956 18144.391396 18917.172624 17729.692350 19822.504001 17715.046191 6954.035415 8091.295152 7719.117583 13678.146583 5306.475754 10821.937688 11398.193957 7432.164104 1009.919822 10463.228660 8221.315448 7913.091560 8802.037376 10672.147733 10703.996333 11314.374939 15795.307060 6262.676086 10340.138072 24819.577707 25503.810339 26344.533947 21247.887988 20413.990227 12406.911788 21074.902692 19265.708991 12748.740719 18914.140487 16535.158430 4718.343286 13515.993229 3829.577417 5500.814350 5595.711930 8732.783880 2373.404371 11768.749191 8421.642818 15407.670882 7562.949058 17933.455582 7708.831742 8260.991397 10118.779958 5542.284838 4130.171393 24463.859544 24433.342736 25505.231004 20165.649437 20173.635000 21404.850800 11391.566072 20084.475750 3642.229139 16066.245350 16524.328489 8877.990341 13427.592752 2342.539999 3106.847377 30.932345 2708.373235 2790.165953 1183.117482 1649.969322 3065.344040 6384.127611 4406.108603 2150.974605 8748.969846 4172.599716 219.027918 -5439.360112 24566.913328 25257.296282 24891.338950 24185.080390 19623.240219 20618.825780 15960.737150 14260.978155 10840.030930 8301.240275 11180.415328 2411.032331 3172.129434 24888.787201 26231.095453 26405.838928 22036.337692 22235.215752 12544.745726 20092.964398 8777.665366 13958.703715 9173.645519 5596.488294 1308.225419 1434.277054 25009.505116 25089.716540 26552.521872 14797.464366 20755.733560 16258.764265 13646.251835 12603.479407 5166.830801 5045.418599 7026.997897 2084.084661 2446.231272 24539.695897 23579.103859 24345.495434 18054.281229 18976.590028 10052.719400 10600.028885 17155.334982 4725.101309 1039.478711 7706.013025 9316.459341 2608.074960 23763.982991 23541.509289 24094.087989 21574.212771 8095.913270 11358.672154 8317.443220 22763.806614 12232.049075 5541.168957 3821.568973 2676.235964 3769.836093 23133.040857 22784.961922 22409.422294 21942.572903 14993.739605 17141.230608 17669.136350 7591.514259 11270.360090 3018.600165 6750.425956 2659.567027 3628.478145 22843.595523 22841.905020 23651.611298 19442.427915 18495.771762 20905.679545 18132.464743 9559.757665 6296.145603 12357.129098 5544.311351 5855.950422 4792.719334 22764.685445 23395.319221 21983.211778 20196.400540 19636.774501 15817.501091 16111.024958 2550.688743 7291.596475 5641.672066 4026.269368 6817.627155 4851.693521 22714.643149 24095.503470 24218.391969 19399.655819 21643.106541 17230.557955 13517.438284 6586.720305 13216.924364 2665.036186 3497.271169 1234.366806 1394.441028 22492.554983 23200.927723 23905.840690 15715.100502 21622.584165 13950.930368 12052.518290 14463.676615 9323.643344 8442.094152 8449.663975 5792.199293 4502.154287 22173.071480 23644.067746 24947.652549 19848.643048 20156.981045 19354.164739 19095.556037 7189.584937 5236.630382 7584.991568 6048.789495 5731.039969 2615.352296 22138.904690 24516.591641 27390.397164 18283.222495 12744.652516 18746.209708 5770.438549 11610.525513 12128.812109 9046.679774 2614.051556 4860.223808 581.240699 22246.733057 23814.232024 24121.709114 21977.395495 17839.357884 15469.776907 11917.232960 12985.671650 8291.128435 5445.410629 13620.671112 5116.298562 863.776918 22262.457625 23452.960462 23972.204064 20186.846021 11958.196045 10452.658001 7385.461602 3788.974535 7555.526796 16949.593709 5315.610977 3667.609823 3028.760860 22120.753034 22863.777732 23656.669798 14276.824973 18548.891674 16203.508828 6963.423955 17374.082201 8986.498325 6659.880236 5351.114879 8921.618233 2480.828864 21854.361971 21893.794747 21443.355154 17744.710910 15259.713320 18993.084626 14267.982853 11332.219138 11089.865443 5911.814658 3802.213886 6353.582836 4669.734519 21294.126630 20441.946490 20732.964315 11678.003487 10324.880402 9960.020378 6815.588022 15718.198981 8537.524221 12720.926346 5218.557800 749.215102 880.254413 20465.621679 20146.070075 20815.443343 20373.696578 15240.352342 12855.070025 6689.441250 15837.384227 11799.632604 10270.901747 6124.972135 5675.816479 3316.683266 19864.009688 20261.891958 20104.492230 15876.053932 6682.289721 12931.460655 12322.753592 9004.428201 7704.109330 6254.254311 7172.771767 9374.258643 5194.121474 19830.220725 20493.205845 17804.169236 18611.204843 18053.696799 10258.295643 5185.697243 9504.799291 3779.303878 14531.594580 4178.994576 5374.124493 1216.094159 20156.559667 19494.963874 16202.424172 21712.790108 17646.325135 6072.638976 7290.470776 9781.274549 13403.502977 6686.119940 5199.994162 6371.039747 2618.746086 20170.620597 18851.152443 15839.310120 19398.909032 13465.926328 19868.727806 12942.893073 15160.517261 9771.575152 7088.838895 8702.680082 5096.512161 2901.155179 19806.974322 19538.192813 19797.502189 18395.882957 16036.811221 13744.153813 12812.885000 14159.767531 8285.447127 10827.470328 4012.504968 1828.440910 1011.263424 19312.356860 19707.828561 21718.259788 17534.828263 15707.804697 14669.145683 10980.100048 16514.761430 15109.100708 14084.533876 10651.259739 4316.782163 216.195137 19071.736959 18209.183884 16864.138807 15462.356433 17426.080107 21714.066071 12152.987767 14603.457521 14255.913925 7240.164219 4236.164705 6080.945764 3911.741164 19057.908666 16462.603633 14036.672313 16468.516407 16453.001944 8246.315673 17109.738415 12203.716942 12591.889019 6200.210325 10006.631867 5628.616541 9588.019216 19050.544538 17666.753677 17855.554238 12429.327233 16117.935964 16641.650759 9219.082890 13241.139920 11776.518600 8967.363354 5626.714130 3104.720725 3964.282493 19049.216730 19498.148926 22190.443912 13503.685837 13448.206218 11868.939499 8440.045868 8364.089615 10496.468701 6306.461475 6082.656074 9027.699265 2799.336453 19036.093667 20306.955145 22605.970892 17721.900069 16260.734175 13805.464119 10290.957897 12009.983399 11094.319992 4472.695163 7812.443405 2490.294770 1266.297548 18826.035840 19727.613135 20637.770537 19143.788338 13793.268307 16981.069057 13018.888071 15588.481463 13490.230164 9794.510016 6944.069349 1887.687281 3163.208729 18611.860688 19467.286421 20271.684349 15148.935852 15803.415474 16177.401067 12889.549962 10697.562572 8410.820056 4704.904843 7007.482405 2488.971556 6868.679709 18489.725487 18544.142243 18241.466982 18134.782184 14770.724115 13255.602554 11568.105964 8418.300928 5363.039140 9485.630198 5385.932781 4324.561569 3202.167653 18525.370943 18051.889365 15922.072907 19809.348968 15449.280885 10488.062653 3055.918561 4606.291176 7581.890857 3448.742840 12529.637189 6060.932767 3593.033883 18638.394560 18687.299148 16781.407997 18464.911530 16214.711015 16427.614516 15320.708425 14514.170355 11803.548214 10722.833234 3565.278475 4565.949700 2999.146307 18566.616831 18677.593824 16751.397973 18201.757467 15207.485252 17769.940867 9887.854344 13224.801833 7228.534317 2612.430016 4492.309537 6040.719486 2415.089655 18448.960311 18528.547601 17783.076515 16500.158202 18702.026224 17299.105397 18978.900787 11763.374614 8211.602510 8247.959597 8884.004271 3078.160434 3999.850861 18396.114577 18264.755406 18880.027961 19961.736225 17657.467369 16171.446209 12202.727060 3611.304387 6622.949701 9652.396997 2642.468341 3773.099157 3153.986380 18276.766325 17772.698947 18431.691936 13705.926627 16313.779211 13815.930837 13382.265395 7341.682717 8165.087060 8097.061669 5384.539415 9562.385190 4026.828801 18119.616394 17709.750156 18433.805733 18266.518303 14997.662101 14252.021560 12009.637881 14903.432079 16002.392326 4711.390701 8058.268601 5563.921638 1607.923465 17770.925283 16676.580623 16356.279901 18136.522338 15074.967125 16319.562406 13859.498139 15378.316372 7832.929353 9640.022400 6476.202190 8576.104807 2792.559449 17386.391568 16076.014209 16441.808103 15263.145947 13136.906363 14908.499815 14103.540908 13892.359304 6798.687849 10340.804934 5689.279763 3116.952745 1825.929928 17294.749056 16339.406112 15208.539601 16427.529367 16495.919856 15938.072606 14291.626722 8994.459929 12046.209722 7253.995711 7320.077233 1500.781089 1328.287904 17527.169497 17089.380550 15265.452770 15407.068200 14727.738792 18100.174515 13564.445409 11167.513108 10754.015605 7990.365448 7493.148200 8212.754558 1401.876224 17805.552003 17632.909303 15570.662788 17107.820002 16344.722012 7181.029454 12676.886139 13494.593257 7705.834978 4388.160491 3212.527383 2275.604888 5122.333072 17886.208957 18033.230032 18092.988799 17060.929428 18652.687233 13940.952546 9970.914353 15095.473595 8220.802544 102.714207 6804.005910 7673.706272 866.354673 17827.002828 17973.490679 18335.206381 16567.931200 14363.395657 15961.234048 9516.543459 8900.496499 3299.900402 10428.136598 7481.076132 2300.296095 5132.991474 17718.731126 18005.361462 18902.280243 15604.659514 13854.965591 14877.588862 11473.876823 8310.384092 5014.578867 3308.967852 6494.033082 2267.678851 4087.348614 17514.853820 17255.049218 16487.253391 17504.710584 12799.978141 15586.676215 13151.105604 6166.677697 4639.472060 7421.690492 6454.671304 9905.257408 4274.778109 17411.674338 17321.740615 15695.943040 18859.462618 12229.131663 15793.374825 9387.273321 5173.172644 5190.693552 9674.906074 4315.881187 4729.709451 1124.739712 17409.130501 17616.299587 14460.837204 16416.136007 16847.925013 10835.308737 10192.413783 10379.949199 6678.120307 4807.824888 12012.092483 3724.785494 2539.920946 17242.005828 18041.028010 15567.751310 16960.064944 13338.952238 16706.468814 6151.881486 10003.867906 9133.692772 2761.972669 6983.305467 6109.472273 5901.642808 16798.444386 15685.031513 12923.544124 15874.147885 17865.244095 10228.074871 10935.529715 7071.797345 10855.678170 5231.533154 5031.309233 7841.908073 3946.745087 16209.055789 15238.316667 17518.688750 11337.557467 17545.046653 5387.265441 12673.100367 8541.275106 12704.084645 6198.032664 6086.034342 7234.270638 2765.586425 16226.256467 16428.815951 21478.602115 16208.806809 17171.935653 12834.127782 7422.042608 9633.512072 7908.765374 6767.609915 7130.989765 8909.743834 4551.120931 16790.903925 16698.281102 19067.908851 16547.134527 14821.596160 7677.552819 10061.048336 5527.408131 9414.511007 10007.390887 4722.828466 10420.495889 845.702148 17053.198405 16794.551042 16734.542718 18109.696850 16660.026610 14188.730916 11167.533767 11429.783104 7269.620940 8587.725617 5798.768791 1991.383378 2943.016456 17071.974536 17211.497507 17519.880944 12166.278967 13351.537573 13275.706776 5755.116710 10661.855300 8727.165367 11198.573844 6965.264131 8467.985788 7350.348804 16979.416783 15897.940933 15954.718408 16243.629491 9895.845518 16154.008419 14840.608906 12679.740160 12843.057007 13214.935035 11844.612271 5807.107733 1683.428838 16677.286820 15484.172278 16666.390555 14712.908608 9881.753454 6129.068169 7920.998081 11261.773555 8496.758220 12140.881700 5911.310375 3337.430226 3704.047510 16398.494569 17009.158864 20036.841231 14428.699760 14063.897017 14642.056439 10428.870563 7584.081060 9042.844420 12002.009504 6000.651356 5800.646911 4446.799501 16361.820153 17497.352771 19394.187059 15812.391577 9861.981929 15492.773666 9907.110266 6744.410887 9482.871499 6396.255113 2713.353831 6422.821686 2121.323936 16498.763524 14910.270007 12139.575735 9848.115961 15620.580153 14067.862765 12248.141171 4610.014330 12362.412032 7641.058759 9814.195642 3454.875238 1422.813178 16512.545283 15374.521270 13344.075640 15118.034183 9094.408793 9266.877191 11096.500481 10710.331434 7913.757986 13070.088567 6135.660633 4490.046016 10558.982305 16459.293076 16270.767240 15429.124495 12971.551817 10714.006039 11901.590321 12647.684451 12066.256228 8506.237407 6012.758835 10839.051197 1655.813538 4800.243566 16422.978309 16649.210928 16149.553520 13548.422086 11805.713335 9736.794761 7872.039243 11935.820330 8085.062642 12888.879054 7259.975297 2977.958163 1497.207297 16250.246582 16041.687694 15315.118292 13135.919704 9067.878107 12818.434674 9766.031585 6773.071502 12034.017038 9332.071916 4003.640289 4293.376910 2724.447454 16098.391526 16601.261036 16564.659715 14082.010034 13704.645145 14468.557581 13816.602391 12919.911227 6912.169979 16004.150642 9104.739895 4060.144209 852.745604 16018.629454 15166.919748 13097.114197 12360.869894 13493.606603 13997.770143 12775.374146 11226.734652 6523.910544 10281.069994 9542.647115 5863.594888 2522.549869 15832.000059 13923.367806 11591.620912 12423.299469 11079.182126 11415.439476 12760.377474 5394.242594 9998.831358 11398.448087 6811.435840 10819.906150 2627.630657 15584.763099 14580.622085 14145.950178 15183.643679 13697.267133 12136.477807 12292.599087 12690.394707 11259.429054 11558.280849 9443.472057 5512.240840 -238.621178 15252.337811 14173.147002 11731.227421 10339.635332 9955.922812 9834.584306 12511.319624 11891.223986 11297.853127 14928.806021 5731.849955 9335.451754 3029.277039 14945.352909 14574.500828 11598.373864 16749.765570 11791.098519 11548.014720 12560.473628 11147.023676 14515.206033 11978.880716 4522.812112 2752.695522 8009.853783 14707.072644 15084.389430 12505.137243 11881.013744 10901.288980 10518.988796 15937.482841 9194.135024 9865.512502 9793.223768 6493.200407 8217.044150 4853.966825 14450.375315 15555.484056 14343.902173 15971.226268 11528.945624 15491.378582 11042.785599 9838.255934 6638.610881 13850.322287 5053.196989 6656.917887 1961.926897 14226.571016 14701.386776 12727.263097 15075.459070 8440.455603 10636.674476 13331.880514 8457.836412 10645.364265 4177.557307 4947.222513 8976.747038 2526.970770 14057.231864 13669.468438 11370.602678 15292.628325 13279.760067 13431.072765 12066.283880 7894.342183 4207.267717 12727.538433 10128.878825 2819.020039 876.120934 13598.147094 13983.231331 14501.381561 16322.825079 16448.772914 10060.322298 14110.406050 11130.606561 10673.978506 12612.175091 8302.633693 3718.380340 3333.438080 13091.311259 12398.466779 12451.743609 16655.849679 9260.059972 8634.374146 12657.454790 7337.024613 4991.838260 8365.877735 6628.443290 10259.641240 5814.961241 12643.213238 10956.683553 10955.104982 10764.694302 13026.178247 13945.676798 10164.043160 10542.063724 9783.909353 6384.645189 5268.265036 6409.498298 1463.992606 12164.821906 11798.623096 12899.762347 10281.808158 8012.898995 10489.039887 11082.666642 8341.332671 6829.597845 7333.375729 8475.914326 5881.237854 1905.587354 12035.426794 12592.943374 14612.871183 12830.964917 10744.105287 7255.973455 8118.023124 10214.455967 6038.097874 11603.761057 3012.447630 8212.020468 3426.477391 12278.249744 12987.813893 11824.648489 9456.435346 9646.815690 14814.477340 11919.996444 9466.814130 9669.009535 2286.240666 13438.890235 10980.707368 9128.226997 12568.953939 14054.290390 12682.290925 10122.595435 10577.274421 13745.449377 17914.825337 12727.824046 7836.343623 13489.077968 9088.885093 9087.528458 4993.219523 12392.033866 13486.988122 10498.005648 14189.625735 13441.128177 13813.724126 11011.205533 11927.590126 13104.992527 13923.776041 11573.989410 15277.615948 9250.502757 11841.746902 12409.617892 9888.941559 14407.184781 12152.609895 13835.060198 16252.400814 11360.477551 13463.576836 17122.312141 13256.015942 13045.407334 10129.806904 11478.002208 11483.362539 10296.937110 10817.727926 10378.818060 10984.699052 13398.476819 11232.614746 9811.103552 11273.657171 11999.962538 14815.407484 11731.674051
</DataArray>
<DataArray type="Float64" Name="Velocity" NumberOfComponents="3" format="ascii">