<VTKFile type="PolyData">
<PolyData>
<Piece NumberOfPoints="2177" NumberOfVerts="2177" NumberOfLines="0" NumberOfStrips="0" NumberOfPolys="0">
<PointData>
<DataArray type="Float64" Name="Pressure" format="ascii">
 14138.039969 13970.087931 13601.019240 12981.477869 12101.443510 11023.882590 9817.548706 8510.440004 7119.325267 5684.171758 4338.476370 3259.177225 2362.634942 1263.265417 -74.891305 -1019.606257 -1261.341929 -1114.996496 -1168.562439 -1836.469589 -2802.724118 -3506.615700 -3865.054614 -3995.361726 -3981.077286 -3877.749133 -3720.708672 -3524.721407 -3293.288542 -3035.725173 -2769.330130 -2507.669714 -2258.147244 -2024.370139 -1807.788998 -1608.598537 -1426.271488 -1259.906099 -1108.453748 -970.859349 -846.136716 -733.396885 -631.844945 -540.758735 -459.460372 -387.288842 -323.579329 -267.653384 -218.825631 -176.442576 -140.000504 -109.411023 -85.300970 -68.478709 -58.601036 -54.380149 14173.823465 14038.049888 13692.626660 13050.293105 12113.086054 10949.375567 9711.206338 8434.672290 7068.791483 5576.755386 4099.874564 3112.452572 2586.489649 1501.112059 -614.780382 -1728.352790 -1571.430770 -890.417988 -605.242218 -1865.234808 -3248.503112 -3758.253790 -3989.993253 -4045.985134 -4003.604778 -3892.344376 -3737.846906 -3549.999028 -3315.844703 -3046.217486 -2773.309470 -2509.164264 -2258.832897 -2024.798207 -1808.128610 -1608.898493 -1426.545250 -1260.157835 -1108.685746 -971.073738 -846.335580 -733.582038 -632.017726 -540.919893 -459.609966 -387.425903 -323.700512 -267.748224 -218.860871 -176.313943 -139.396845 -107.729669 -82.094956 -65.319513 -56.302559 -52.708746 14234.434388 14053.668127 13907.036732 13448.826198 12953.516104 10852.221628 9385.531903 8599.590061 7222.809675 5623.435117 3530.800913 2768.420012 3563.322064 2877.028556 -2355.138022 -3480.089767 -2057.795483 -448.230868 713.238361 -1911.629183 -4402.057116 -4269.209090 -4158.933256 -4108.902225 -4030.541742 -3909.998368 -3761.970727 -3600.112169 -3369.227422 -3062.078423 -2777.449768 -2510.216167 -2258.944560 -2024.620052 -1807.867351 -1608.623098 -1426.279183 -1259.908507 -1108.454500 -970.859582 -846.136780 -733.396876 -631.844846 -540.758386 -459.459211 -387.284999 -323.566618 -267.611363 -218.686792 -175.983327 -138.497191 -104.159148 -74.272022 -59.123087 -52.396950 -49.942846 -58.072670 -51.256494 -48.270532 -45.184052 -42.797439 -41.330836 -34.002438 -33.427859 -32.874060 -25.985757 -25.833674 -25.641747 -19.834869 -19.803025 -19.730668 -15.064459 -15.065443 -15.032875 -11.366666 -11.375355 -11.357097 -8.515447 -8.524685 -8.512548 -6.332415 -6.340373 -6.331538 -4.673815 -4.680219 -4.673549 -3.423654 -3.428657 -3.423574 -2.488914 -2.492758 -2.488890 -1.795647 -1.798567 -1.795640 -1.285627 -1.287821 -1.285624 -0.913448 -0.915083 -0.913447 -0.644053 -0.645260 -0.644052 -0.450632 -0.451515 -0.450632 -0.312882 -0.313522 -0.312882 -0.215572 -0.216032 -0.215572 -0.147385 -0.147713 -0.147385 -0.099991 -0.100223 -0.099991 -0.067315 -0.067478 -0.067315 -0.044969 -0.045082 -0.044969 -0.029809 -0.029887 -0.029809 -0.019607 -0.019661 -0.019607 -0.012798 -0.012834 -0.012798 -0.008289 -0.008313 -0.008289 -0.005327 -0.005343 -0.005327 -0.003397 -0.003408 -0.003397 -0.002150 -0.002157 -0.002150 -0.001350 -0.001354 -0.001350 -0.000841 -0.000844 -0.000841 -0.000520 -0.000522 -0.000520 -0.000319 -0.000320 -0.000319 -0.000194 -0.000195 -0.000194 -0.000117 -0.000118 -0.000117 -0.000070 -0.000071 -0.000070 -0.000042 -0.000042 -0.000042 -0.000025 -0.000025 -0.000025 -0.000014 -0.000015 -0.000014 -0.000008 -0.000008 -0.000008 -0.000005 -0.000005 -0.000005 -0.000003 -0.000003 -0.000003 -0.000002 -0.000002 -0.000002 -0.000001 -0.000001 -0.000001 -0.000000 -0.000000 -0.000000 0.000000 0.000000 0.000000 0.000001 0.000001 0.000001 0.000001 0.000001 0.000001 0.000003 0.000003 0.000003 0.000005 0.000005 0.000005 0.000009 0.000009 0.000009 0.000015 0.000015 0.000015 0.000026 0.000027 0.000026 0.000045 0.000046 0.000045 0.000077 0.000077 0.000077 0.000128 0.000129 0.000128 0.000211 0.000212 0.000211 0.000342 0.000343 0.000342 0.000547 0.000549 0.000547 0.000861 0.000863 0.000861 0.001334 0.001338 0.001334 0.002035 0.002040 0.002035 0.003049 0.003056 0.003049 0.004485 0.004494 0.004485 0.006468 0.006479 0.006468 0.009126 0.009139 0.009126 0.012564 0.012577 0.012564 0.016814 0.016826 0.016814 0.021751 0.021758 0.021751 0.026957 0.026949 0.026957 0.031509 0.031476 0.031509 0.033683 0.033604 0.033683 0.030512 0.030358 0.030512 0.017199 0.016929 0.017199 -0.013685 -0.014130 -0.013685 -0.073224 -0.073923 -0.073224 -0.177461 -0.178519 -0.177461 -0.348984 -0.350536 -0.348984 -0.618813 -0.621031 -0.618813 -1.028574 -1.031669 -1.028574 -1.632921 -1.637146 -1.632921 -2.502129 -2.507783 -2.502129 -3.724776 -3.732197 -3.724775 -5.410360 -5.419931 -5.410359 -7.691737 -7.703873 -7.691736 -10.727195 -10.742338 -10.727192 -14.702044 -14.720649 -14.702032 -19.829597 -19.852119 -19.829557 -26.351501 -26.378368 -26.351371 -34.537447 -34.569001 -34.537020 -44.684402 -44.720731 -44.683006 -57.115739 -57.156145 -57.111172 -72.181083 -72.222343 -72.166143 -90.259082 -90.289735 -90.210225 -111.769680 -111.751079 -111.609916 -137.217571 -137.019463 -136.695155 -167.335852 -166.510417 -165.629149 -203.741616 -200.545368 -198.137806 -248.675474 -236.633554 -230.908852 -274.793485 -254.596619 -245.478003 14891.404108 14019.391509 11450.785302 9327.801082 10352.722380 8820.088408 7728.850041 9761.627961 7266.029845 6107.941580 7526.140609 8859.304004 11275.485092 4068.708269 -6198.887357 -6314.347228 -5652.968826 -5267.173514 -4539.733107 -3971.674591 -3690.848650 -3630.773039 -3713.939604 -3877.665904 -4065.068833 -4226.436934 -4322.950870 -4328.209875 -4230.782455 -4038.164738 -3777.436903 -3488.339253 -3210.122614 -2968.743017 -2771.076646 -2608.056760 -2463.255059 -2321.429095 -2173.356427 -2016.449224 -1852.773164 -1686.460865 -1521.764592 -1362.076742 -1209.692677 -1065.950954 -931.476905 -806.391004 -690.426408 -582.889355 -482.300983 -383.144263 -299.540719 -264.786857 -249.786890 -243.964927 15029.124816 14343.153585 13250.199310 10276.117205 8571.577964 8584.960166 9595.414898 10741.882725 10002.117051 8505.637310 8080.137849 7555.990313 7557.862988 5646.722779 668.971408 -2079.878629 -3692.041557 -3969.643944 -3692.270453 -3416.088295 -3312.649527 -3362.412855 -3517.390512 -3730.433575 -3953.287460 -4141.286457 -4258.501448 -4280.193723 -4195.962329 -4013.953003 -3761.592963 -3478.775148 -3204.887171 -2966.153707 -2769.872045 -2607.450752 -2462.863838 -2321.125912 -2173.130574 -2016.314886 -1852.731997 -1686.498515 -1521.859461 -1362.208277 -1209.845657 -1066.117598 -931.661546 -806.627876 -690.841843 -583.920437 -485.403016 -395.396807 -320.722223 -278.226506 -257.634832 -249.655422 15383.947765 14773.846181 13473.351681 11637.166646 11424.201299 12405.309237 13012.224339 12875.578775 11952.169885 10850.972022 9886.944949 9071.285616 8589.518734 7188.373282 3861.049264 307.851099 -1874.837638 -2688.477464 -2834.373281 -2850.204671 -2927.553121 -3089.495261 -3318.221672 -3582.489504 -3842.459833 -4058.378773 -4197.201070 -4235.755329 -4164.479295 -3992.106618 -3746.669337 -3468.721996 -3198.269731 -2961.999156 -2767.482367 -2606.270140 -2462.430060 -2321.076648 -2173.217819 -2016.399394 -1852.756992 -1686.456316 -1521.763865 -1362.077919 -1209.697232 -1065.965961 -931.526108 -806.552374 -690.955426 -584.626544 -487.932503 -402.959884 -334.781496 -289.268506 -264.221476 -254.033381 14268.045811 14163.211227 14639.828665 14283.025913 14614.646477 11505.830185 9555.038882 9353.671412 8093.933294 6033.896527 2957.121624 1324.467017 3902.722048 4232.567692 -3654.883445 -4736.745126 -2242.710668 -258.947417 1578.812322 -1181.416436 -4460.098922 -4436.259425 -4210.639590 -4127.399583 -4038.630976 -3915.338358 -3770.412338 -3626.371442 14407.353580 15018.147331 16999.505726 13442.805628 14945.974462 13892.919364 14142.679194 14033.726652 15849.556177 15510.649087 13680.829521 8911.928544 14725.261637 14217.670941 17538.646130 15925.854434 11865.190300 14411.775475 13517.450444 13741.631303 14696.443738 14505.369292 15179.082695 14022.972166 11758.939952 13940.171576 7042.621567 -159.328298 14677.276738 15014.962531 15901.373224 12161.397910 12324.795234 14263.425868 14260.118345 12292.462344 17103.771222 14023.428759 12150.399689 11443.608802 13444.732377 16851.143671 13684.993382 14904.531969 5819.099931 13544.176666 11027.017343 9247.599533 12366.855628 15493.201974 14033.460300 13457.052467 15816.722688 11728.844424 7470.942075 10851.408811 14891.206950 13881.916780 12945.962648 12676.637479 16340.934428 7802.412578 13647.007149 12428.021767 14468.208485 9882.521450 2126.831851 8785.939485 10805.189398 6618.936397 12366.068540 11143.487005 10272.223114 11466.514895 11074.154712 11520.651841 12569.393255 3495.642694 9792.037321 11857.825397 14510.490473 6014.076215 14039.295886 -2982.239992 15046.053867 13247.890886 11964.727083 13890.315240 5009.578818 17036.893242 11174.399631 4015.385431 13495.235378 8548.623821 12623.495743 14192.872753 12401.855604 11838.547588 2076.732066 3597.857150 14154.937971 10968.322928 6984.994649 8815.476057 2420.203900 9675.234548 13025.435188 1897.218499 2821.627574 4854.519931 259.975999 8911.680088 15225.154798 13847.769512 12749.682522 13424.008493 14366.158704 12264.032282 14455.981889 9828.969872 12331.760167 8558.139860 12988.819621 9641.559926 11890.941368 5289.978509 11183.190981 12903.092800 6650.325583 10278.688525 14675.895705 12694.215095 3383.518315 11332.524951 10088.805382 10292.441301 10729.131274 4994.830471 3561.292963 3577.691692 15341.060589 14923.612284 14481.402153 14300.637657 13882.125889 14240.188694 6079.376705 4326.139178 5941.528341 9867.721984 9331.431985 10081.176942 14278.533108 12403.251141 15073.875785 11201.347620 8338.419853 12202.309430 9470.764420 8136.996949 4449.175934 10657.384362 10211.431954 4026.722569 4016.351348 6619.718445 3264.069988 801.781162 15266.685185 16088.711486 17072.213320 14698.321427 12228.511320 12333.509092 11935.200950 11113.497068 11309.821483 11995.780588 9653.245678 13087.409041 2165.526502 10018.488337 12049.770970 11183.857241 10301.681513 10053.492886 3675.720112 3280.811864 7581.880339 6684.592067 3891.882035 3429.695438 7147.994582 3707.692830 1205.269081 2490.343605 15197.723090 16805.791320 18824.829132 14859.893410 16761.343465 17633.789898 15232.365981 14806.978303 11045.314055 5690.748370 9549.354933 15023.646499 12097.336029 12806.074992 8355.230251 1120.791334 8485.559653 5113.426662 10206.293940 1504.436150 12323.488621 8335.740730 353.395421 5251.074666 5649.385395 1718.226035 4422.139417 1167.597295 15307.172106 16195.662204 16264.205304 17230.570479 15359.454861 12827.242261 14392.452764 13034.843752 7724.808223 8578.058075 5752.719953 7879.233612 5004.110921 6242.587016 1721.740774 10245.747292 5242.673732 6230.801921 4325.384794 3176.500114 6747.897426 10654.912884 3615.627527 4492.537501 11293.188482 5019.202731 2425.058882 1968.150352 15573.290094 15841.228821 14464.284187 18707.493156 16205.034723 15729.641526 14128.149164 14025.280814 7894.021618 15281.550523 6422.220565 10019.438321 4589.100979 7991.915290 11646.094021 4474.324616 4044.396149 5699.111452 10412.686703 4948.614331 7599.583877 2216.456634 2530.456356 3286.271037 10042.008914 3974.117082 1670.657476 -62.308080 15844.128984 15073.623154 13010.326704 18519.875443 11728.189894 17243.532199 16119.676120 10501.281504 5709.330411 5956.394957 5953.163917 7503.869494 12200.196995 8901.045379 9037.457695 15287.720580 11910.277131 10967.850023 3196.721500 3244.119264 2108.724991 2543.085598 7212.010892 9424.863566 3144.631481 3450.831729 2699.146371 782.078152 15912.116908 14802.136518 11967.019298 14081.895632 15907.755350 10045.116776 13612.964514 8081.496388 10005.016752 7208.190064 5822.722160 5176.259095 10640.864373 4087.322094 6977.902761 8058.352431 5314.069563 3495.794547 6562.719601 6036.039450 3620.045386 3004.767281 8052.086045 8707.905021 7793.696570 10858.890276 1316.040366 4303.638902 15784.918907 15821.324807 15902.834672 15751.715514 15700.336575 6448.343437 17522.813508 17350.788407 7513.494238 13526.425518 14168.907155 2177.029838 8617.321291 2428.918288 6689.854398 7689.096996 6826.043365 3621.574462 15170.775108 5106.213715 12062.579392 1436.522923 15102.033614 6191.721198 4023.883567 10307.629199 1030.811436 2396.137985 15682.556029 16075.448427 16513.349922 16390.619740 16676.898600 20866.908389 12558.868993 14453.088070 4740.505648 13976.707611 11352.310998 6795.633426 4855.948081 1939.949035 1871.399508 890.985658 1100.217783 1180.718729 4089.972819 647.748769 3109.619519 1070.526928 927.083861 1416.620042 1890.040685 1898.375672 3144.196937 2028.291051 15781.333670 16045.963116 15669.683627 18449.446926 18541.801404 17765.514125 13427.360223 10206.037238 7127.267815 5428.643694 6960.893068 3066.820157 4942.407854 15893.081393 15352.478146 14335.352495 17367.503613 19551.446591 12228.090259 15026.892383 12035.500724 11810.618784 11319.514849 2194.045899 1502.792185 3672.947438 15986.209880 15550.475231 14947.809959 15862.074800 17192.221870 13724.418771 9514.582699 8578.996278 6006.872673 6123.756125 1659.601470 4059.127626 -2501.900597 16137.442303 16173.658096 17115.070940 15949.350366 16021.202137 8389.796908 12574.929794 11422.964597 5862.446708 4499.096214 8664.298967 11003.516117 2083.115241 16190.956779 16682.922194 17307.901191 19927.732403 5885.968134 7413.506181 4531.730416 15731.035001 12130.431232 5294.215013 3813.564717 1334.352780 1420.119779 16288.697957 16364.928913 15556.743652 17044.956289 11897.017455 13915.998071 16501.431636 8689.171965 6529.480329 4190.897004 7287.524151 1186.159891 1686.783232 16691.617538 17020.274548 16655.009419 18697.777876 17714.804151 14748.844638 14355.676620 9096.684630 3333.743060 11779.910555 8286.383306 7358.030834 1765.470255 17017.503503 17277.087253 16737.756272 19971.716518 17460.638926 13655.004706 15646.292902 2590.394080 10113.925056 1953.501387 2561.217594 3829.035203 2828.566486 17112.961007 16673.747892 15415.521298 18362.515154 19739.382985 17908.438199 13027.348331 6113.329802 12613.992950 4391.781001 5402.606143 1051.096311 1895.587616 17210.956535 16943.637358 16385.572479 12446.830185 16006.320918 12398.025339 9388.281350 14700.931989 8833.884140 3840.715984 11068.302579 2975.426159 3550.419324 17344.825594 17987.584566 17945.924669 16853.941737 18344.582971 17190.138622 17020.168685 6017.040146 4126.069747 5434.303447 8701.653774 7908.872138 4335.372069 17350.903661 17919.583677 17049.014477 14374.632848 14891.483043 15365.271634 8595.078303 16831.890286 10440.519923 10386.727064 4589.939139 7233.457304 3427.512366 17357.986015 18119.359734 17852.471921 20637.738357 15959.151593 18226.325338 12011.868054 13795.581931 14189.596124 7986.252737 13350.948770 7818.762331 1204.081257 17438.372092 18699.387450 20105.226959 18807.080553 12941.738858 10794.927660 8646.901801 4251.755280 5944.781269 18560.524678 5003.382112 3963.186176 3867.857765 17447.159358 18140.801491 19186.040976 14782.721148 20115.457823 19138.099835 12134.211014 17605.080915 4848.805896 4697.842625 6574.478417 11693.238878 2093.191904 17392.860589 16605.961820 16085.653168 15200.416614 13714.359989 18635.299732 16328.451801 14968.072110 12206.504105 2832.423886 4518.976558 8030.478012 1517.696259 17566.019582 18377.127622 19390.400205 13790.025782 13347.835589 12655.810759 546.805263 16244.455530 7144.298313 14602.955135 6540.504991 3146.337061 3079.354038 17732.971875 18095.816098 18499.463807 19608.062840 16018.810800 13654.765318 8770.043632 16481.733453 9792.857551 7776.441116 5100.149307 2641.302161 5893.619457 17800.760453 18290.091737 19348.961112 17024.669025 13178.848743 16850.455725 13390.385427 8354.273406 6881.501589 5178.644440 9816.375165 12931.877371 6965.136916 17988.489875 17942.162237 19309.209306 18675.107231 19307.318281 13527.551883 5302.022692 11921.330819 6600.489143 16102.436612 8143.568741 7318.032143 1379.466385 18406.306941 19008.475802 20035.646908 21730.280140 21383.519925 10846.640459 9418.764096 9935.171186 18359.767769 10109.104140 5366.785768 3796.013899 1911.399293 18879.473406 19661.587858 19700.796962 20184.960770 19223.462155 20209.982620 14606.469614 13184.398176 10126.445294 8587.340964 9208.098390 6811.217040 3739.197861 19084.765513 19292.151304 18646.164554 21715.453132 18284.484233 17061.996595 16940.487392 13981.827162 8069.082798 16206.038568 2741.116961 5115.216338 3037.244796 19169.039770 19537.266615 20287.695824 19287.795772 19828.108076 15821.335296 13619.604672 18237.578425 17864.986526 16433.480911 10063.027062 2318.986681 1715.159390 19304.031611 19143.065819 18599.377256 17502.387024 19378.094076 19576.294901 14656.015986 19412.405790 14265.411628 6847.758043 3000.781469 7364.796007 1602.587993 19526.910205 19652.817924 19968.420289 20006.952664 20743.685656 11338.460240 17359.719962 12609.880046 15407.975571 6438.384635 7569.311947 6415.242987 8809.428648 19613.266115 20546.359457 22190.457605 16392.160208 19069.588723 18124.759272 13849.557580 11565.589955 9982.199003 7277.612998 7908.130096 4548.967131 5029.496847 19591.379429 21671.611265 23610.933058 14503.241066 16786.306160 15679.041126 13130.453118 9334.706524 8906.543826 5818.413268 1430.915114 11122.149551 2132.768017 19666.844154 20177.913106 22973.317024 19017.569878 19362.856392 17165.476528 13510.120376 14990.701631 12560.102327 4723.421138 5716.849373 1711.123087 2373.300864 19965.266362 20824.327968 21537.023089 23251.218432 20954.798878 19065.077468 14610.130237 16972.115782 15795.279213 10112.940012 6443.059003 2525.095957 3199.825160 20359.850184 20812.622012 19046.184820 22111.775004 18700.262100 18865.256256 18620.779002 16687.710857 8673.047091 5940.837914 4411.593271 1980.881328 5488.349509 20541.325858 20055.999127 21086.282661 21523.333355 19408.366769 16509.595307 13459.208908 8975.891632 5378.136284 11736.673417 3292.883141 6906.631650 1279.099632 20694.653639 21928.425189 22933.567772 22807.901023 20792.930291 14953.333107 8056.105266 3335.202409 12028.980927 6617.126790 15102.842065 8765.030081 7608.065789 20827.207903 22172.953414 22802.789620 22930.624507 20580.455192 17301.113985 20707.110073 14926.923862 13098.198886 13027.991575 5901.452164 8489.319985 1400.582400 21091.800752 21990.407079 23460.594463 23447.498456 23228.711801 21188.428681 13977.957181 13128.797943 8633.364034 3181.658341 5327.888228 5195.672566 5651.443044 21409.821328 21672.134973 21273.452682 18890.987250 17064.972182 23376.744008 21090.002194 10900.993647 8952.285380 11372.662658 10983.159435 5928.310492 7389.117361 21844.837271 22923.662937 23277.243181 20690.223951 19647.000825 17603.790773 13517.712455 5156.809281 7447.738576 13737.384005 5697.189802 3920.092758 2980.452179 22164.993721 20994.960022 19786.142823 20876.042048 23541.482698 14716.404063 15897.367946 7564.758930 7505.883942 12704.339407 5027.393626 8709.201822 5773.767672 21948.790337 19361.119120 19866.024191 23776.378777 18932.267581 20609.028029 15720.545725 22727.601174 18378.256525 4621.438275 6705.291515 7239.264074 1641.902245 21893.089031 23304.181474 23817.078566 23533.693907 20333.008256 20800.332306 18868.623049 18327.503815 7016.979736 10633.521202 7901.623650 10025.647394 5559.685890 22203.556676 21982.464274 21529.958497 21145.083175 19017.198020 20633.660159 18678.464524 14765.313150 11932.575834 15936.168211 9167.200792 5569.355249 3296.348932 22395.073682 22492.301984 24303.506147 25323.882547 24210.901613 19873.284215 18026.040223 14320.445413 18002.557015 10983.111493 9754.513759 3011.110481 681.850730 22751.844191 24038.065359 26169.816346 21257.512105 24618.336434 21157.488018 18124.253400 14735.554675 16715.343824 12488.050139 11339.696562 14210.087594 2619.374526 22972.615285 23132.723040 24206.680695 22770.630352 18464.106568 10708.604001 18099.402242 13072.777568 12723.900539 9362.014653 9537.508516 3892.634961 5717.333917 23036.037610 22921.127325 22043.923685 23563.669735 24130.917647 21578.288446 15868.902160 21894.732019 11067.241569 3588.583305 9149.551750 8904.925027 1331.288984 22966.294223 22778.967456 22285.660296 21135.874233 20790.019631 20030.438462 14298.423450 14353.662229 3807.744946 14126.600719 13863.384977 3074.435917 8754.419455 22767.179791 23091.465964 25297.806760 20518.255111 17835.491923 18639.294924 17895.059758 13627.786420 7036.100954 5115.633081 8678.060258 4069.037796 4841.355115 22572.155547 23829.326853 29961.890012 22681.817631 19087.630795 19361.597402 15800.105192 9671.671528 8891.697541 9394.713628 6236.627501 13593.874119 5230.351708 22639.710428 23448.321001 25230.844944 24952.862724 21237.120952 19370.773711 9611.424107 7750.087320 6067.273352 11901.585659 6445.808546 9893.146453 974.681343 23086.294974 23651.248197 23870.085457 22294.589108 25030.867355 17163.714941 10887.032482 16482.102422 17056.564782 8566.471144 14635.818783 3856.273187 2495.145240 23420.922675 23229.433539 23465.432332 24079.441362 17276.753427 21110.933262 8127.349659 16160.835492 9010.067995 6928.877912 12934.054785 7997.567222 6750.169126 23600.719779 24741.652067 24465.354177 22174.777122 23524.036055 14402.808162 17168.130931 13354.195114 14314.504652 9414.550878 7693.572718 7672.453393 3262.966356 23662.816258 24653.910930 26672.793519 20482.640000 22108.957234 8836.090368 17624.406092 14239.686601 9056.878099 9114.469798 12105.425678 6835.518573 6818.415136 23526.253570 24690.739683 27945.235710 22042.783268 22598.359892 21682.008092 8472.168536 18320.170298 14066.849647 10381.366721 12146.268497 10359.869919 6676.835786 23538.860893 25389.413422 25590.135603 21671.376047 22730.465275 15965.732283 11808.770385 11774.216320 11217.399579 13680.799844 4058.142622 15745.491645 7389.627293 23897.501022 25645.117132 26421.725707 23177.355702 22210.300597 21178.743384 17391.403001 20112.611589 11050.280694 8916.663613 7839.094441 3397.569670 6313.235781 24096.001490 23308.217166 22489.426959 20645.889155 21242.327573 17308.489024 9390.232006 20961.684141 11024.132335 12942.291287 11155.775742 5371.213674 4877.238440 24023.670048 23089.431628 21700.868154 23938.873472 15077.299968 22587.817854 21909.069116 19414.555381 17651.791123 18159.265520 11991.307020 6850.114104 2265.753564 23886.878942 22265.189962 21509.296625 22353.118349 20023.342565 12900.386278 17041.193879 20076.318230 15687.742862 7599.581123 5324.815113 2336.027828 5888.498676 23903.830059 23914.605133 25122.254786 23604.954433 23632.159112 20412.822630 20049.749060 16713.427533 9288.735485 12161.806053 10297.297104 11500.303229 6428.990949 24205.385280 25589.554809 26686.030110 25815.243135 18841.317316 20517.120968 14567.105370 8619.710801 13708.843026 6527.933050 5549.670807 11371.849895 7619.963600 24430.073852 24163.007726 22930.638937 17178.094478 22201.782501 20454.927494 16515.382197 10124.787363 16948.130377 14693.712215 16338.362002 5637.062953 1725.729207 24473.152669 24713.598253 24158.456741 22616.525754 17903.321895 19429.824012 18742.263301 13686.168194 24186.522649 24545.269076 3801.313626 11726.720648 12867.360624 24447.507937 24319.299109 21328.870434 18792.078622 18371.594521 19315.152445 19094.466666 14719.853716 15686.152293 4602.460384 14101.254550 5563.812657 7575.434983 24219.460188 24705.068773 25124.814945 22647.855370 15090.936980 16742.967372 10116.645262 13858.275523 11897.207474 11912.152294 10285.492135 7407.558269 3661.082828 24028.370861 24014.512572 24063.948600 21404.503435 14217.707270 16746.500887 14695.923855 3170.099708 17461.084816 8510.763669 7202.534918 4692.093669 3522.335826 24021.980775 23634.098496 21701.353423 23373.791372 21613.636547 21479.660397 17837.951934 14758.634443 7208.308972 18397.471594 12822.036015 3049.026386 49.090924 23762.296955 23887.138137 21848.972199 18714.207591 20363.541349 19484.809911 14944.754034 12153.757727 7476.686442 14482.071792 9919.480241 5878.426648 3252.783747 23283.965776 22885.629659 21470.475979 20922.265401 17529.854004 18187.405601 16211.944192 8598.512697 16090.543256 13958.506185 7963.944519 11878.262615 4669.365203 22856.871249 24095.285306 22769.262562 18551.415332 17898.035975 11314.781746 14103.647163 21325.056391 14683.344773 14891.115267 11647.733129 11342.100328 7209.386203 22166.339363 21924.389939 21168.669425 15652.609586 19574.745590 10472.011388 15336.933782 16829.031358 16721.130545 15861.522476 6506.228810 12734.992217 1755.920260 21738.557141 22545.464904 23929.703945 18338.089651 19564.757447 16583.190755 12854.625065 16650.846491 20740.809987 24853.936848 6097.418192 7825.135693 10259.803679 21730.452074 20591.002629 21247.982181 22214.538964 17214.068396 11729.520289 19844.851985 17523.967111 12609.421802 11111.388582 15133.093986 13663.671372 -1104.172332 21477.918851 18356.440243 15161.440301 25377.136870 21113.555905 16984.393538 15101.339490 13567.936676 17892.407522 13960.503697 7281.343315 11360.322412 4525.436692 20737.194472 17432.941473 15099.505651 17942.765860 15802.616818 15498.672130 15476.941782 8725.514974 13878.706853 2933.123928 4431.601638 11882.107449 9064.511003 20153.546637 18686.656480 14420.356662 17763.496790 13150.320868 22267.696314 10734.640749 15743.830532 9015.998905 18579.081233 11294.486411 7937.235291 1599.969889 19475.434986 19902.157218 17445.410674 12532.100268 19020.502314 11772.306211 10850.580053 13154.600679 9617.877450 10901.491954 6616.420707 11899.280170 6404.612610 18608.852393 18136.061490 15507.843033 24719.693123 19450.860482 6914.454212 10051.409111 11522.687744 1254.992438 10749.561264 9685.668324 10876.837133 7527.258824 17776.016880 16943.697763 17503.149743 19191.050855 16909.834678 17139.510390 11915.985802 12908.411213 13896.769413 10554.766785 8656.378267 5195.220584 1938.554954 17263.424498 16022.302414 16684.104498 14765.702280 17374.083010 15844.138940 20842.708691 10568.270985 12022.625183 8483.301628 7208.961023 1219.497249 -4643.685074 17135.033858 14144.530254 9586.162941 17993.318724 16763.130968 16809.268852 10035.098054 16170.385149 9527.935326 10083.175466 14451.613404 1157.961220 1079.603455 17273.931537 15946.178138 12042.395228 18042.971771 16710.459574 15785.006810 16726.253903 10888.844755 12772.289814 9840.817841 14202.481110 12113.995764 14546.630980 17278.782952 17598.833742 14775.382871 10198.148193 11742.379109 15763.104880 13760.280750 15229.885361 8786.078980 14089.721644 9779.067174 11826.050020 7886.557244 16750.643453 18487.454000 19488.982877 17885.362961 13334.853735 18004.197645 18356.084508 14494.469454 15861.561327 19431.396977 16254.085853 17152.439749 15399.422691 15436.714826 14050.434444 8768.740215 22634.022632 17855.587143 17447.080249 14664.009677 18670.061532 18587.680796 20274.723063 10615.310829 15500.539067 10471.113240 14891.404108 14019.391509 11450.785302 17472.075131 19555.970190 19980.100481 17687.461051 14036.272577 12138.057365 17586.543243 17377.525613 21001.226766 11690.402386
</DataArray>
<DataArray type="Float64" Name="Velocity" NumberOfComponents="3" format="ascii">