<VTKFile type="PolyData">
<PolyData>
<Piece NumberOfPoints="2177" NumberOfVerts="2177" NumberOfLines="0" NumberOfStrips="0" NumberOfPolys="0">
<PointData>
<DataArray type="Float64" Name="Pressure" format="ascii">
 15879.521757 15607.264302 15035.159705 14198.808074 13213.936474 12166.472351 11012.199086 9683.451821 8226.497232 6660.831096 5008.647258 3275.513491 1480.127777 -190.120821 -1529.334529 -2478.205323 -3090.232998 -3445.189430 -3608.678154 -3632.653152 -3562.847337 -3439.269829 -3293.798693 -3149.128679 -3019.331639 -2911.074886 -2824.823687 -2755.901206 -2696.623062 -2640.056111 -2580.950731 -2514.384222 -2436.377543 -2344.827744 -2239.650920 -2122.420535 -1995.804971 -1862.995200 -1727.227029 -1591.443079 -1458.097933 -1329.084170 -1205.745404 -1088.941716 -979.138747 -876.500451 -780.974636 -692.369837 -610.435407 -534.986327 -466.191280 -405.199948 -354.875729 -318.582140 -296.857660 -287.551678 15906.717888 15663.033054 15040.093525 14029.095427 12863.100117 11844.467856 10883.056836 9669.389602 8336.617484 6776.447485 5029.882957 3174.154165 1202.843615 -517.743348 -1770.961600 -2623.329354 -3167.065219 -3480.893052 -3624.177149 -3639.677076 -3566.648888 -3441.916146 -3296.055984 -3151.285069 -3021.579032 -2913.801802 -2828.856404 -2761.942132 -2701.722993 -2642.190518 -2581.551699 -2514.404912 -2436.211090 -2344.618885 -2239.459071 -2122.272198 -1995.710368 -1862.954776 -1727.235260 -1591.491297 -1458.176451 -1329.183712 -1205.857892 -1089.060497 -979.258244 -876.614846 -781.073908 -692.427502 -610.369904 -534.544035 -464.618979 -401.001184 -346.780766 -310.058323 -290.062370 -282.208370 15996.978576 15859.448159 15483.348941 14287.591807 12472.683475 11167.225696 10715.118732 9634.557592 8592.350492 7211.954218 5328.450749 3099.254866 549.628049 -1047.668309 -2045.722514 -2789.400773 -3256.768490 -3523.069019 -3642.743145 -3648.166884 -3571.182524 -3444.947154 -3298.527468 -3153.581547 -3023.983162 -2916.920448 -2834.527744 -2774.255807 -2714.007246 -2645.586098 -2582.494344 -2514.817662 -2436.497003 -2344.860028 -2239.659411 -2122.422684 -1995.805484 -1862.995310 -1727.227046 -1591.443072 -1458.097906 -1329.084085 -1205.745126 -1088.940807 -979.135772 -876.490705 -780.942716 -692.265307 -610.093222 -533.864776 -462.549527 -392.641247 -327.720524 -293.553698 -278.405284 -273.282664 -289.240884 -273.544735 -267.053389 -252.814581 -247.193406 -243.984587 -216.914023 -215.562942 -214.303938 -187.492967 -187.129466 -186.689548 -161.944036 -161.867556 -161.698274 -139.537748 -139.543418 -139.462507 -119.862848 -119.890588 -119.839817 -102.621384 -102.653197 -102.614334 -87.560016 -87.590605 -87.557859 -74.450040 -74.477968 -74.449380 -63.081256 -63.106261 -63.081054 -53.259981 -53.282160 -53.259920 -44.808247 -44.827798 -44.808228 -37.563263 -37.580412 -37.563257 -31.376900 -31.391872 -31.376898 -26.115094 -26.128107 -26.115094 -21.657180 -21.668439 -21.657180 -17.895140 -17.904840 -17.895140 -14.732810 -14.741129 -14.732810 -12.085034 -12.092137 -12.085034 -9.876807 -9.882845 -9.876807 -8.042414 -8.047525 -8.042414 -6.524575 -6.528883 -6.524575 -5.273622 -5.277236 -5.273622 -4.246700 -4.249720 -4.246700 -3.407025 -3.409537 -3.407025 -2.723174 -2.725254 -2.723174 -2.168440 -2.170155 -2.168440 -1.720231 -1.721640 -1.720231 -1.359533 -1.360685 -1.359533 -1.070416 -1.071354 -1.070416 -0.839600 -0.840360 -0.839600 -0.656067 -0.656680 -0.656067 -0.510717 -0.511210 -0.510717 -0.396074 -0.396468 -0.396074 -0.306021 -0.306336 -0.306021 -0.235582 -0.235832 -0.235582 -0.180728 -0.180926 -0.180728 -0.138214 -0.138370 -0.138214 -0.105444 -0.105567 -0.105444 -0.080356 -0.080453 -0.080356 -0.061326 -0.061403 -0.061326 -0.047093 -0.047154 -0.047093 -0.036696 -0.036746 -0.036696 -0.029426 -0.029468 -0.029426 -0.024790 -0.024827 -0.024790 -0.022488 -0.022523 -0.022488 -0.022394 -0.022430 -0.022394 -0.024556 -0.024595 -0.024556 -0.029196 -0.029242 -0.029196 -0.036729 -0.036785 -0.036729 -0.047784 -0.047855 -0.047784 -0.063244 -0.063333 -0.063244 -0.084290 -0.084403 -0.084290 -0.112463 -0.112609 -0.112463 -0.149744 -0.149931 -0.149744 -0.198644 -0.198881 -0.198644 -0.262317 -0.262616 -0.262317 -0.344691 -0.345069 -0.344691 -0.450630 -0.451104 -0.450630 -0.586113 -0.586705 -0.586113 -0.758447 -0.759182 -0.758447 -0.976509 -0.977417 -0.976509 -1.251021 -1.252136 -1.251021 -1.594862 -1.596226 -1.594862 -2.023418 -2.025078 -2.023418 -2.554966 -2.556974 -2.554966 -3.211098 -3.213516 -3.211098 -4.017189 -4.020087 -4.017189 -5.002898 -5.006354 -5.002898 -6.202701 -6.206802 -6.202701 -7.656463 -7.661306 -7.656463 -9.410030 -9.415723 -9.410030 -11.515845 -11.522505 -11.515845 -14.033574 -14.041328 -14.033574 -17.030729 -17.039717 -17.030729 -20.583290 -20.593657 -20.583290 -24.776286 -24.788191 -24.776286 -29.704350 -29.717957 -29.704350 -35.472199 -35.487679 -35.472199 -42.195040 -42.212570 -42.195040 -49.998868 -50.018629 -49.998868 -59.020640 -59.042812 -59.020640 -69.408288 -69.433050 -69.408288 -81.320553 -81.348078 -81.320553 -94.926610 -94.957062 -94.926609 -110.405452 -110.438979 -110.405448 -127.945006 -127.981737 -127.944991 -147.740952 -147.780985 -147.740905 -169.995227 -170.038605 -169.995074 -194.914186 -194.960833 -194.913689 -222.706472 -222.756001 -222.704855 -253.580743 -253.631843 -253.575484 -287.743892 -287.792350 -287.726792 -325.401861 -325.434099 -325.346264 -366.770018 -366.741809 -366.589271 -412.117028 -411.881249 -411.529423 -461.917187 -460.970796 -460.008526 -517.612033 -513.967248 -511.381873 -580.584815 -566.977338 -560.927745 -614.450091 -592.210268 -582.387780 13950.024310 14740.433780 15534.723384 13740.716263 15860.720264 14182.137821 16860.590381 11904.470319 15031.965184 16904.980275 14525.264951 13011.623239 14728.180055 15962.453186 9878.842736 8940.971101 6878.706150 1096.793989 -1217.103085 -1852.106620 -2164.733756 -2355.385282 -2481.616260 -2565.319426 -2617.290418 -2644.248968 -2651.159154 -2642.015675 -2620.090379 -2587.998450 -2547.725890 -2500.673833 -2447.735678 -2389.403203 -2325.888619 -2257.247220 -2183.487172 -2104.657099 -2020.906852 -1932.521113 -1839.928693 -1743.692438 -1644.485474 -1543.059491 -1440.209886 -1336.741140 -1233.433050 -1131.002301 -1030.036462 -930.816512 -832.824957 -731.111303 -641.583762 -603.410972 -586.963500 -580.889721 13394.715167 13784.146676 14088.003519 13875.660531 14343.765585 14590.416500 15121.369885 12327.796627 12262.971862 12367.824199 10039.079263 8960.596992 9090.340861 7574.638855 5782.907799 4119.995369 1932.873033 -131.962611 -1308.231353 -1862.773685 -2165.329661 -2354.827894 -2481.033015 -2564.831865 -2616.893125 -2643.927424 -2650.901325 -2641.810873 -2619.928158 -2587.868517 -2547.618589 -2500.580781 -2447.650282 -2389.320927 -2325.806988 -2257.165584 -2183.406323 -2104.578812 -2020.833428 -1932.454973 -1839.872063 -1743.647147 -1644.452893 -1543.040677 -1440.206236 -1336.756487 -1233.480380 -1131.125564 -1030.382298 -931.881545 -836.252477 -744.780417 -666.033785 -620.167386 -597.792815 -589.293428 12903.765178 13003.321551 13226.003442 13413.961814 13305.509914 12953.158672 12428.813803 11657.206016 10989.833496 10036.192370 8763.134932 7731.969624 6782.938576 5512.667161 4015.900566 2435.862512 805.401812 -536.767483 -1389.732072 -1877.973285 -2168.894841 -2356.111099 -2481.748565 -2565.344067 -2617.295025 -2644.249820 -2651.159306 -2642.015700 -2620.090382 -2587.998450 -2547.725890 -2500.673833 -2447.735678 -2389.403203 -2325.888619 -2257.247220 -2183.487173 -2104.657100 -2020.906857 -1932.521128 -1839.928741 -1743.692592 -1644.485979 -1543.061136 -1440.215250 -1336.758632 -1233.490095 -1131.188332 -1030.642934 -932.797056 -839.214799 -753.410837 -682.272435 -633.718792 -606.687852 -595.723716 16065.602134 16314.873330 16413.233834 14856.647428 12828.043351 11503.986632 11291.984717 10059.844739 8874.278038 6964.819549 5371.790942 3365.057650 734.885618 -871.616630 -1977.755311 -2836.649052 -3283.953530 -3536.531920 -3649.286944 -3651.518134 -3573.013449 -3445.999294 -3299.162168 -3154.004683 -3024.358889 -2917.506958 -2836.278380 -2780.615693 16248.100793 16643.619657 15302.031741 16385.109854 13755.137968 10805.635452 14428.060451 15566.387182 16525.796534 13886.654649 11688.893117 13773.078927 13691.986920 13395.259080 13502.677444 13862.108261 9473.005877 16154.391330 12185.515526 15465.912700 13182.420339 13162.531901 15051.325560 15154.278301 9578.376520 11391.098364 4378.299155 4955.456491 16425.388383 16752.546922 15191.130167 11069.355676 13041.694700 14050.069477 13015.330363 14566.548173 15572.776250 14708.286584 12441.249542 11304.136800 14193.539588 11873.125022 12447.693881 15810.167332 11696.073538 11520.035302 15159.000560 14376.378757 10867.843003 17454.257372 13868.505671 12401.788227 18243.623278 11297.874079 10617.756335 11560.280685 16407.154315 16519.832764 15444.293528 13195.417508 15854.936371 10049.635695 12693.196557 16137.486206 13234.436785 9916.730559 4742.139873 9604.369395 15363.623115 10019.247293 12332.413984 12469.031850 11613.205047 13549.479285 10752.432696 10656.859277 11915.066775 7703.392051 9865.891223 10591.619509 11326.415476 10581.889270 15589.397811 8203.039977 16369.787697 15696.062065 14308.951691 16739.001812 8557.672261 16136.407344 8736.768376 5996.714560 13929.336970 6889.308640 9203.128629 13204.777025 16309.790677 10618.369131 4659.668273 9050.612211 13050.741799 10085.740857 13935.224437 11914.379650 2747.373648 13909.339432 14516.163883 7691.879659 7743.985549 2461.307256 1392.690214 10732.381213 16442.857524 16541.188047 17026.867431 10974.397158 11885.966321 12613.501763 14720.346075 12411.973302 11719.758160 10750.448767 9276.737890 11227.075233 11810.809267 6320.681310 8241.641799 14989.362370 10921.167296 7309.585034 13519.860977 11714.158461 8378.409952 11046.317014 14020.281864 8245.895222 7255.150536 8390.753870 5822.783329 4910.463144 16642.116260 16782.323931 16350.606578 13138.723535 13651.951270 12837.138444 7533.525662 8537.174476 8141.428068 7539.338003 9375.434834 13917.717873 12661.723546 11947.462652 16058.946301 5352.982649 6179.305169 12500.721130 10246.619901 9494.332976 5167.504660 13806.601268 11155.056576 13039.552659 7565.096617 8740.096171 8716.444933 3283.790519 16758.702794 17394.030794 16781.870446 13947.803998 14123.225076 11634.169011 12642.062198 12424.439629 13951.508606 11259.332653 13874.712245 13748.930640 7444.732362 6767.989616 12520.517783 12962.238353 7652.508632 9981.863987 8288.112397 6676.432402 13986.365679 11488.494762 5139.781751 5437.433744 9296.620192 6975.771117 3095.828459 6514.414538 16564.208828 18209.201976 19751.317028 15200.941762 16860.377275 15993.643298 11586.957272 15652.174004 9778.628047 6779.511083 8222.541033 10560.834584 9127.472373 15195.101129 8551.382625 4555.540557 7485.130159 5040.596588 8477.634626 3437.753985 7255.755095 8507.642669 2814.285476 6464.682396 3795.691538 7368.239746 5494.334086 2018.266834 16381.223705 17599.971341 19379.946991 17023.351600 13005.389919 10990.686517 12603.379562 11209.524571 3719.577466 13169.650843 3393.601815 6933.238154 5962.780387 6551.897250 5107.434195 5539.185439 5190.608428 5100.793333 11785.878066 5873.814953 10951.976071 9535.894223 7761.834407 8810.102359 11739.858632 7467.461603 7258.877382 1157.620088 16559.695713 17577.659731 18899.980608 13203.516713 11353.261269 13728.855305 11095.442844 12695.318715 9964.523532 15136.709144 10888.910210 13078.081792 8580.123598 6634.123098 13760.196999 1426.337847 4263.738349 6309.714819 11851.528799 9133.650852 9180.737011 5170.798778 3689.302963 6856.814502 6968.343049 7003.294149 3297.916141 1019.374087 17009.466170 16645.183301 16046.103994 14459.831671 10520.108119 14107.567672 14110.926807 11719.625805 6190.755221 9063.088785 5749.086901 11616.088323 10524.016449 9564.355747 9859.683459 10640.622399 12764.495229 10078.865439 2776.841297 5057.782915 3302.690525 2559.324901 9097.664288 8261.409017 5334.012805 10428.864152 3541.537446 4275.757874 17376.900504 15770.419478 14925.693809 11967.287526 14398.250374 9365.814349 11312.564793 7241.888117 11296.887093 8592.819631 11362.245111 2864.945578 5424.569393 3883.567604 9001.483778 10234.527027 5764.857433 2683.704477 8304.361647 10822.573879 10453.560296 8809.696670 7162.945840 6630.620275 10046.539806 12013.442515 2721.597264 7485.692930 17569.965350 16495.362783 15685.860035 14602.850239 16796.922593 7111.261213 15690.336280 14894.615961 6267.162331 14788.938623 14338.221542 4987.586961 3344.274643 2446.457802 4177.300135 3156.241118 4337.279403 3802.542709 11005.849163 5997.438262 12204.186579 4507.751372 10592.026345 7182.551321 4490.570480 9977.543059 3103.901780 2235.863389 17607.137153 17448.362780 18471.730568 12698.193398 17304.152906 13533.900644 11496.360327 11118.800246 2164.269521 14302.887764 10993.832533 4492.503746 7142.184706 2169.387274 1688.400623 556.542982 1565.576746 2204.052448 2142.959870 2688.947695 3835.091923 3519.463183 3117.122709 4023.998837 1555.035242 3498.294245 4029.956109 2352.272228 17494.049292 17181.971217 17366.541828 16301.170428 16709.138742 18917.309361 10926.622429 14255.282329 6895.239330 7769.815819 8792.017845 6841.478040 6342.973181 17319.423322 17446.617654 17903.953730 16427.972298 15072.671381 16377.751430 14529.416273 11720.213657 10958.674689 10496.211220 5125.894067 3631.956870 2734.084848 17265.272154 18687.702998 19368.181800 13838.742420 16796.147589 13083.294797 11776.965115 6461.366366 4364.016349 5248.574046 3278.420302 5508.530657 4575.296013 17359.840702 18504.325074 18098.294884 10633.564618 13531.804184 8062.263257 9320.240088 11321.981884 3212.079692 5611.260448 5876.879960 9327.946512 3918.739993 17508.571682 17772.163965 17472.579750 17753.928111 8586.286135 10490.318316 7210.568490 14478.955493 12163.802557 7930.378117 2523.201760 -494.701725 1975.401136 17804.020011 17987.647507 17637.931327 19210.710454 14608.624668 11633.704975 14313.416717 12553.199414 11437.373265 3242.832127 7090.393455 2353.362425 4313.341296 18164.995970 18558.905334 18701.773127 13539.965553 16046.942900 13275.643085 10466.073686 8665.579810 4446.468762 12325.410199 3490.780798 8941.407859 4140.907220 18381.970600 18201.489264 17850.187044 14878.221709 14773.875924 13957.586643 12020.128705 3842.828405 9124.101263 4204.265523 5409.856961 3063.525257 3898.745484 18328.015997 17524.717170 14948.786906 10974.277755 15022.632110 16501.327870 8588.770949 10291.564121 11126.655289 5129.728375 7230.624865 1815.213718 2241.418145 18144.270731 17687.416974 16828.968447 8940.751885 13878.960762 14843.434833 9805.828719 12453.105785 9420.064097 5220.563536 10080.003556 5176.043580 3342.157718 17824.400648 17413.400951 16334.657282 15339.295691 14805.093080 12693.510132 16423.671377 5903.408762 3314.648880 6363.904575 9002.864723 10769.986825 8072.522381 17453.264424 15963.977415 13401.901686 13344.098767 14636.290825 11893.606731 5599.707160 7718.188226 9122.034556 10479.440245 2477.992564 9651.091562 3263.605870 17347.730973 16697.912329 16343.451354 12368.138260 17343.760297 15163.057403 10930.973488 10446.233868 9624.881956 7637.535452 14366.498181 3069.745296 2007.822085 17545.517323 17802.881463 18670.480056 16333.467423 8171.826650 10242.084624 8559.860619 2588.948700 7918.451619 8919.537211 5983.883316 3752.507856 5357.404826 17942.200183 17067.025051 16346.910039 10145.131144 15964.211097 11502.763994 6232.054777 14988.643721 4654.308117 6494.680606 5294.948946 9162.879521 3902.015154 18243.545643 16950.965268 15531.015315 15637.613101 10076.879926 17976.711851 12701.653010 9262.955530 12611.422370 8409.348994 4639.603167 7026.844123 4318.928833 18444.082578 18605.269749 17491.901662 12187.568216 6531.400007 10056.534796 1648.257927 13856.208442 4975.852117 10524.812655 5955.381985 3352.118792 6560.592517 18541.495154 19465.857901 18771.553698 16107.712495 14262.565735 11780.051792 6976.936206 17390.091988 13480.030233 14427.534859 8637.249796 5852.789356 3749.751579 18457.360371 17847.338657 16327.961264 15575.801547 9012.890541 10221.199016 11310.496604 8537.045812 8886.230092 8271.059829 8038.238930 11956.018311 6096.045755 18341.919597 17229.875277 16218.035356 19303.217314 14123.747883 14555.303650 5352.303937 12626.166137 4663.114589 16683.222855 5741.858558 1092.856891 2699.911636 18432.608313 17927.767195 17872.482266 17535.408181 16991.572280 7641.550112 6773.117544 9032.170271 7151.875527 4641.743885 4816.167207 7983.740632 5624.456466 18686.375597 18640.094588 20409.676623 16883.978293 15493.763380 16118.880175 16811.141476 16183.122879 7247.625113 7848.767149 9170.100359 5370.680836 5971.211997 18994.897315 18555.299113 19472.822965 17495.015867 15983.098382 10168.675841 13635.572416 13506.938731 5184.737264 13768.490186 4503.169964 5494.812889 4559.197660 19236.248796 18546.194560 16074.442344 12920.267952 16255.470049 12671.119842 8398.470566 13953.646389 13982.866124 16838.563656 10945.681620 6986.816527 3539.663453 19257.361331 20556.204128 19074.068931 18141.686075 15332.447960 15650.770382 10660.603156 16529.249131 11494.616768 6579.143160 4178.216930 6501.924068 4411.830034 19070.607912 20857.061248 19143.313138 18959.651401 14638.738295 3828.960378 15113.063311 11532.842269 12231.672068 2506.033741 10917.629260 6599.258622 14481.711219 18945.693291 20363.278583 20354.022851 7043.991235 13368.135983 10336.497252 9146.392778 7722.450475 10550.119047 5264.881528 7713.740288 2949.632593 4850.468615 18760.010909 19737.384700 21513.812288 11337.868452 8364.681719 7528.615062 8527.179447 7881.615408 10993.285211 6516.295008 5244.641134 11724.133542 2423.139605 18809.093629 19298.759823 19073.191095 13067.098099 16350.568046 12974.586983 10189.380612 14788.854207 11646.851383 7095.496950 7078.937344 5159.231588 2460.439194 19056.660721 19930.678790 20047.916064 14785.048986 15678.150010 15469.475298 18261.442214 13937.873105 13349.195232 12081.189304 8657.307322 4126.503946 4478.496850 19375.475744 20689.436667 20859.522787 12981.604436 15811.339375 15791.654936 14580.527308 7888.924786 7814.615283 6347.027095 7100.417171 3476.270861 7486.892735 19617.141068 19663.024303 19231.190370 15638.136352 16948.926948 12217.327930 16369.608895 7722.152316 4496.663408 10271.245108 3929.921224 10121.403087 5487.114191 19510.184070 17385.677566 14318.835896 16645.645982 15425.918375 9331.319562 9583.971015 6996.495872 4364.994279 2547.380721 8447.703235 7561.526650 4863.675588 19461.782230 17030.290872 14811.708576 16754.861556 15237.782544 16272.081913 12512.498608 13152.955789 16225.421986 10095.412672 6256.741232 3458.390999 4542.480837 19628.313819 17822.904715 14718.776964 19493.184759 15965.740582 19315.240098 12150.831284 10949.661083 7045.745713 2989.016423 5175.867743 3330.545546 9071.966162 19636.440319 17838.647471 15487.222137 17801.169630 9871.967436 16038.465250 18053.597654 11161.117797 9838.641692 7031.332639 9699.143860 6877.537820 6397.827383 19659.881073 17891.875380 15361.262514 18388.038049 17366.416863 15880.551427 10072.291947 5675.710876 5647.142945 13220.167865 4561.033945 4460.926459 3406.452868 19714.676546 19382.767507 19656.604548 18085.112035 17388.261748 9610.615028 15312.927124 9831.004029 8884.239107 11837.043104 9988.649944 11309.641926 8208.133477 19441.794444 18910.157135 19027.350133 17959.336143 18870.205726 15658.036830 12338.247457 17605.603051 9841.888925 4518.966790 7044.679121 5664.223800 1297.890752 19218.507499 18168.749648 17406.690738 17120.997335 16245.707908 16954.956339 14202.882552 10690.721852 7434.485760 8417.793048 6618.539863 12553.458407 6622.857027 19438.883586 18696.413019 19884.669551 16773.106984 14801.740648 14429.273916 12032.730387 9489.160250 10841.497498 15550.525718 11177.607304 12392.336816 5262.461317 20014.209907 17031.511495 13175.019140 18401.371031 19268.912257 16502.214871 12502.548731 10446.922225 11956.596208 8087.205577 6952.322225 3564.328995 2680.884582 20470.200861 18797.915143 15863.641363 18957.794097 21364.870016 19180.119083 15064.733519 16639.820125 12312.366428 9363.791293 7679.446061 16707.550508 3948.295649 20368.033435 19305.934044 16727.035884 18426.354773 13054.200666 6896.544924 18832.675537 17117.076114 11626.970195 10388.456379 9916.788686 5310.483819 5946.476490 20310.013812 19480.219433 17696.209522 17251.766470 19956.982891 12809.281290 14504.621084 16175.810502 13126.058107 4889.575349 6776.861789 11537.002787 3145.117813 20269.288142 18683.149092 16006.258256 12113.990404 13896.456818 11565.120983 12267.000445 8502.544625 4921.431716 15862.346938 13329.021532 5113.539947 5290.251586 20183.016177 18795.175821 18219.147390 14665.049486 17906.320585 17741.292039 18188.810988 13544.049045 7674.598082 8898.549702 7525.014507 1980.133912 9553.283174 20158.896077 20041.577130 20628.221308 15237.753987 15723.370399 14883.906339 10501.007446 9054.283683 9885.905788 12406.164505 10558.483296 13404.462233 5002.823316 20273.322577 19925.195232 19426.158759 15861.684014 17703.668986 17869.160017 12655.633464 9470.309233 7733.953904 12140.505716 3190.209974 4701.076727 4384.366451 20296.721184 20014.804847 16535.911878 17823.225486 18455.917603 12400.238444 12953.375512 12525.493558 15317.147793 10768.163676 17179.159575 7395.784464 3170.301470 20195.361118 19540.746813 16391.404167 17294.103587 12187.467404 17782.427535 11285.309518 11745.785422 12271.790244 6708.826844 16545.726694 7762.102316 8798.484222 20296.742745 19306.695382 17576.864172 20759.616898 19291.622614 8525.868490 17151.373782 12470.952386 13816.741549 9190.971996 5797.648561 9237.599501 6839.596198 20264.333294 20827.864316 19567.651379 19318.508162 17016.482584 9387.179677 12956.970149 12068.001218 15040.659633 7041.107463 13207.292968 7278.826991 5150.669753 20174.892275 21132.888020 23054.960655 20067.235035 19185.573953 17007.197543 11256.792909 13354.975455 15039.182511 11261.191909 10738.181143 13860.505271 7904.431513 20029.295834 21258.112265 22742.490645 17725.109893 19395.934718 10926.445345 11906.291598 11748.133912 10988.981527 10537.165137 5353.232190 12858.176268 2451.767870 19752.660282 19335.685412 19134.099108 21520.048526 19856.101468 18558.310182 18572.131916 17711.476194 16739.589554 12623.551922 10937.607806 5974.249707 8424.500119 19607.643433 19529.129737 18047.369015 17414.983591 12906.336225 13733.681939 10702.396074 12897.308180 13573.639024 9780.242885 9273.079764 4249.226608 8397.877563 19656.687266 20372.901450 21323.960404 21811.785736 10919.355812 19278.298574 21846.448327 23208.990830 18654.495348 14792.737230 20225.229394 5473.941257 -206.509008 19640.066833 20922.592559 20227.578569 20169.359114 14146.092742 9170.379139 12891.283822 15615.572567 12813.726156 11045.972432 7992.486625 3530.237459 6425.213117 19196.365346 22625.038734 27943.426487 20436.719476 21986.471800 15871.156539 17948.642262 15654.758152 12463.211755 13544.450970 5151.752247 10099.122527 4552.226542 18840.407210 22049.898589 25827.383404 19651.509691 14517.259432 15111.551554 15981.206918 6276.615481 11917.902166 8423.183190 7425.726798 11059.908467 6873.565094 18701.166475 19817.777750 20880.088169 12362.971471 16755.411174 17485.131555 16824.532378 7223.042179 18764.989839 14026.602477 9461.812683 6550.185006 3415.357272 18655.453205 17533.570881 19474.589991 16755.791838 11569.168184 14092.229869 20447.690537 14774.656279 16434.371832 16862.025449 6829.062058 7807.074435 7877.411142 18870.723269 18720.944281 20599.704387 14546.506626 9168.243053 17912.834288 17594.971965 21028.915919 9925.924449 10513.664326 16509.070008 2643.714172 6649.301523 18901.023035 19060.745525 21068.071436 19704.245784 13823.900457 15333.874112 11590.835085 12156.241241 12175.612807 15751.969582 11110.351202 4068.848822 8704.612504 18979.047725 20129.905882 25236.595544 18843.152539 17349.543499 13514.966538 15931.509184 10462.490046 13332.653469 8463.604882 8616.052022 7851.054352 6879.537961 19360.241942 19137.056740 20285.982114 18445.567325 17359.856533 16200.214335 18035.636026 18052.718805 9999.502102 17152.203289 16652.470241 5411.935910 2110.039983 19616.427406 20127.278632 20434.905842 16562.987330 17291.900587 16963.353179 13575.944297 17246.906305 4392.078186 17006.694026 8646.065024 9561.762201 1935.784696 19269.777243 20035.283998 19172.233234 19547.748524 14013.143662 17804.068884 17277.129545 6313.197073 17710.035495 12110.191969 7759.646896 7725.723130 5457.725811 18835.802892 20304.683879 21814.406777 13247.971434 19003.829823 15907.029526 16717.810263 15779.314395 18247.346718 13106.947463 9206.159417 10897.310075 8410.095400 18453.844333 19959.181184 21878.386552 14849.281455 14409.710116 16849.956896 14502.375352 14845.332281 12338.177234 18124.399622 3814.120350 18245.703146 1790.730867 18236.805948 18381.006290 17003.837046 19574.780258 14321.470614 10865.184161 17394.234246 10592.097172 17726.070334 13489.030511 7523.496849 7114.970383 5650.323509 18247.296070 18372.531705 19363.399452 13673.632304 15714.498187 11181.806512 16375.206111 15382.860126 17304.690743 11530.063534 17209.633887 16534.737199 1725.030600 18567.649379 19518.031289 21335.183697 18507.558275 21857.597205 15069.199844 16824.944324 10793.790018 14651.811216 19174.663628 14874.032598 7524.579697 3974.334363 18684.455684 19304.787845 20214.786038 15032.610434 13642.445631 9755.124552 17295.576886 14585.227125 19619.339352 9314.703822 5575.368809 9460.050493 5038.412583 18658.431836 19434.855653 18574.892784 18435.827399 15600.393488 16471.918580 17331.982174 16598.657933 10255.013313 12206.910109 15750.477382 8754.928239 10368.133322 18078.762509 22169.047779 26490.184663 20313.099893 24100.491721 14302.830014 16818.786380 12839.411600 12037.826173 18421.620647 12515.712684 6803.448426 7393.496551 17352.268989 18835.441159 20073.688752 20862.645216 16555.580905 12095.570279 15358.588375 14538.274937 9501.488667 15676.374800 14357.674547 17578.752271 5313.825388 16981.541905 16913.954343 16082.977625 22628.265664 17831.005622 17151.688980 11281.264363 20622.593159 15180.839752 8165.397046 11683.428923 7393.616846 4844.990542 16693.028467 17331.337357 17222.101344 10926.779036 16459.091332 22401.939367 15449.214803 10863.670634 18148.704561 16491.651877 13523.221095 7329.863442 6018.693264 16509.872223 15465.883100 14316.912505 16924.629059 13749.752002 13892.616217 13950.674255 19211.541893 6583.331169 16572.522973 6601.274420 4242.835280 5676.397616 16319.741794 15081.564566 13647.446215 11789.082100 17928.964724 14848.723476 14461.964826 18376.469820 13544.945855 8543.552605 16223.541924 15009.830876 14075.873114 15986.167403 17692.630695 21185.097122 16216.090878 17501.192322 13348.037976 19504.625000 18650.369679 19700.377437 17483.233646 14455.647992 13703.640718 6060.558036 15508.119615 19355.865156 25070.041274 16853.493894 17833.353065 20260.323831 17300.827457 21266.503040 19005.732468 22986.023051 19179.146733 16554.739716 15656.121314 14629.184120 16980.306411 19460.232240 22677.559230 18568.088953 19698.293721 20777.998657 16877.309865 13803.831972 15807.861672 18466.109053 18437.994784 17592.235316 13950.024310 14740.433780 15534.723384 14612.123505 15716.508824 16526.145655 20578.171671 19338.384957 12064.353567 14601.894743 15087.329090 20247.726783 16892.284629
</DataArray>
<DataArray type="Float64" Name="Velocity" NumberOfComponents="3" format="ascii">