<VTKFile type="PolyData">
<PolyData>
<Piece NumberOfPoints="2177" NumberOfVerts="2177" NumberOfLines="0" NumberOfStrips="0" NumberOfPolys="0">
<PointData>
<DataArray type="Float64" Name="Pressure" format="ascii">
 14028.766456 13849.212984 13431.209743 12777.915457 11920.516867 10890.421518 9706.177938 8400.003994 6972.216631 5404.987672 3735.135509 1960.842410 312.330453 -726.989072 -989.442794 -690.449471 -217.809551 -93.972739 -561.034358 -1049.801563 -1129.127195 -1183.847613 -1747.656698 -2643.486015 -3275.695410 -3506.635780 -3475.387129 -3299.608329 -3040.297250 -2737.143145 -2424.027615 -2121.093347 -1836.967028 -1574.815192 -1335.638786 -1119.661082 -926.816665 -756.842813 -609.214784 -483.059132 -377.111950 -289.741647 -219.027249 -162.870354 -119.116927 -85.669283 -60.575458 -42.090202 -28.707815 -19.172088 -12.473949 -7.850761 -4.783566 -2.917642 -1.926120 -1.525203 14271.442406 14083.815533 13675.350659 13053.534700 12238.841548 11329.788315 10179.322949 8872.372184 7455.605409 5690.500663 4033.387844 2167.427378 -61.547343 -1306.331442 -1289.450822 -580.204476 327.252581 749.820080 -557.808081 -1509.392979 -1128.183504 -936.476387 -2416.370462 -3613.696530 -3650.876100 -3707.278746 -3578.063900 -3365.901145 -3082.245647 -2755.294083 -2430.769451 -2123.572348 -1838.034970 -1575.426585 -1336.101398 -1120.072656 -927.206744 -757.217610 -609.571983 -483.393501 -377.417974 -290.014928 -219.265187 -163.072327 -119.284106 -85.804215 -60.681482 -42.170579 -28.763988 -19.199070 -12.447398 -7.721262 -4.524516 -2.693985 -1.795206 -1.449668 14621.670584 14536.989017 14934.386009 14530.596911 13085.082752 13220.140265 12645.383178 10504.710374 9979.453406 6808.724981 5217.489942 4036.694023 -851.266814 -2644.610927 -1796.897481 -426.137644 1434.662658 2717.453850 -875.653049 -2846.327792 -1177.476468 -56.224332 -2975.718483 -5531.626694 -4503.265161 -3971.423788 -3708.063430 -3471.855634 -3166.618339 -2780.429222 -2437.553167 -2125.365028 -1838.311691 -1575.238566 -1335.772134 -1119.703070 -926.829865 -756.846951 -609.216077 -483.059534 -377.112074 -289.741684 -219.027255 -162.870339 -119.116861 -85.669043 -60.574608 -42.087193 -28.697203 -19.134676 -12.344143 -7.362732 -3.811251 -2.226920 -1.571331 -1.324475 -2.232011 -1.574025 -1.282545 -1.322630 -1.107227 -0.968909 -0.725751 -0.676298 -0.628687 -0.414651 -0.401976 -0.386883 -0.237528 -0.234581 -0.229660 -0.135160 -0.134671 -0.132934 -0.076028 -0.076089 -0.075400 -0.042181 -0.042313 -0.042004 -0.023059 -0.023161 -0.023009 -0.012414 -0.012479 -0.012400 -0.006580 -0.006618 -0.006576 -0.003434 -0.003455 -0.003433 -0.001764 -0.001776 -0.001764 -0.000892 -0.000899 -0.000892 -0.000444 -0.000448 -0.000444 -0.000218 -0.000220 -0.000218 -0.000105 -0.000106 -0.000105 -0.000050 -0.000050 -0.000050 -0.000023 -0.000024 -0.000023 -0.000011 -0.000011 -0.000011 -0.000005 -0.000005 -0.000005 -0.000002 -0.000002 -0.000002 -0.000001 -0.000001 -0.000001 -0.000000 -0.000000 -0.000000 -0.000000 -0.000000 -0.000000 -0.000000 -0.000000 -0.000000 -0.000000 -0.000000 -0.000000 -0.000000 -0.000000 -0.000000 -0.000000 -0.000000 -0.000000 -0.000000 -0.000000 -0.000000 -0.000000 -0.000000 -0.000000 -0.000000 -0.000000 -0.000000 -0.000000 -0.000000 -0.000000 -0.000000 -0.000000 -0.000000 -0.000000 -0.000000 -0.000000 -0.000000 -0.000000 -0.000000 -0.000000 -0.000000 -0.000000 -0.000000 -0.000000 -0.000000 -0.000000 -0.000000 -0.000000 -0.000000 -0.000000 -0.000000 -0.000000 -0.000000 -0.000000 -0.000000 -0.000000 -0.000000 -0.000000 -0.000000 -0.000000 -0.000000 -0.000000 -0.000000 -0.000000 -0.000000 -0.000000 -0.000000 -0.000000 -0.000000 -0.000000 -0.000000 -0.000000 -0.000000 -0.000000 -0.000000 -0.000000 -0.000000 -0.000000 -0.000000 -0.000000 -0.000000 -0.000000 -0.000000 -0.000000 -0.000000 -0.000000 -0.000000 -0.000000 -0.000000 -0.000000 -0.000000 -0.000000 -0.000000 -0.000000 -0.000000 -0.000000 -0.000000 -0.000000 -0.000000 -0.000000 -0.000000 -0.000000 -0.000000 -0.000000 -0.000000 -0.000000 -0.000000 -0.000000 -0.000000 -0.000000 -0.000000 -0.000000 -0.000000 -0.000000 -0.000000 -0.000000 -0.000000 -0.000000 -0.000000 -0.000000 -0.000000 -0.000000 -0.000000 -0.000000 -0.000000 -0.000000 -0.000000 -0.000000 -0.000000 -0.000000 -0.000000 -0.000000 -0.000000 -0.000000 -0.000000 -0.000000 -0.000000 -0.000000 -0.000000 -0.000000 -0.000000 0.000000 0.000000 0.000000 0.000000 0.000000 0.000000 0.000000 0.000000 0.000000 0.000000 0.000000 0.000000 0.000000 0.000000 0.000000 0.000002 0.000002 0.000002 0.000006 0.000006 0.000006 0.000020 0.000021 0.000020 0.000066 0.000067 0.000066 0.000204 0.000207 0.000204 0.000604 0.000613 0.000604 0.001709 0.001732 0.001709 0.004610 0.004668 0.004609 0.011857 0.011995 0.011856 0.029058 0.029364 0.029058 0.067798 0.068438 0.067798 0.150443 0.151698 0.150445 0.317101 0.319402 0.317113 0.633889 0.637810 0.633940 1.199300 1.205464 1.199498 2.141568 2.150420 2.142288 3.595040 3.606567 3.597543 5.639717 5.653588 5.648161 8.188781 8.206594 8.216639 10.817970 10.852822 10.908403 12.548151 12.657547 12.838325 11.605023 11.998357 12.528576 5.142070 6.536440 8.062532 -11.454327 -6.467686 -2.205034 -45.344149 -27.372818 -17.189399 -71.683799 -40.635865 -25.140832 10786.559089 10155.063743 7876.388086 9596.286010 8655.748309 5759.739714 11592.095642 4542.208742 6736.830622 3029.805434 1742.567936 1299.394588 -10707.217677 -4938.913462 -1792.507436 -4290.828525 -4281.772141 -4034.551775 -4006.040024 -4136.248733 -4285.313315 -4395.725389 -4476.579926 -4553.388447 -4639.998840 -4733.099539 -4816.929839 -4870.029030 -4870.978036 -4802.532383 -4654.265265 -4423.914814 -4117.567610 -3748.798484 -3336.948388 -2904.802293 -2475.977062 -2072.341421 -1711.784186 -1406.615057 -1162.787304 -979.960330 -852.233584 -769.292043 -717.769168 -682.789274 -649.735785 -606.184017 -543.673069 -458.725995 -352.448409 -225.076551 -107.658372 -56.659787 -32.738181 -22.091440 10825.501997 10744.483749 11614.585969 13297.097533 11679.092524 8844.036835 8836.235949 6289.197837 4938.962040 3871.088581 3045.124666 1239.563543 -3718.743413 -4795.192775 -3625.596732 -3932.436762 -3971.732734 -3882.491012 -3944.649693 -4111.444901 -4273.225334 -4388.202982 -4471.018541 -4548.773429 -4635.807550 -4729.051801 -4812.912038 -4866.043251 -4867.098534 -4798.870414 -4650.941950 -4421.040187 -4115.224791 -3747.033204 -3335.764249 -2904.161436 -2475.805348 -2072.537314 -1712.230636 -1407.192924 -1163.387654 -980.492731 -852.629427 -769.505048 -717.777281 -682.601407 -649.405634 -605.839324 -543.600153 -459.666163 -356.558068 -242.184253 -136.326319 -72.224677 -38.984445 -24.896636 10959.741257 11086.359101 11490.841813 11700.650911 10663.634200 9328.352717 8227.548589 6892.419188 5991.888985 5007.607225 3765.104865 2122.936826 27.542916 -1729.306549 -2867.782870 -3471.527279 -3651.261444 -3722.455239 -3880.059711 -4087.754442 -4263.188250 -4381.772130 -4465.457733 -4543.679200 -4631.293683 -4725.253066 -4809.891625 -4863.789569 -4865.535097 -4797.868282 -4650.336103 -4420.650446 -4114.878821 -3746.587225 -3335.117767 -2903.264401 -2474.658035 -2071.183906 -1710.747676 -1405.674493 -1161.930295 -979.183442 -851.538406 -768.682041 -717.248864 -682.368800 -649.449284 -606.148636 -544.273749 -461.202092 -360.642040 -253.220379 -155.925917 -85.799316 -44.764686 -27.048031 14824.108552 15064.850392 16505.069546 16438.773502 13864.428973 14753.026637 15663.216240 12013.404630 12356.431991 7970.006377 7216.761102 7858.281914 451.371329 -2008.043073 -1631.414189 -378.844045 1840.142145 3360.231530 -1143.034329 -3472.866512 -1168.383957 1278.715181 -786.985091 -4724.335247 -4627.921437 -4049.475025 -3746.916566 -3518.906775 15318.708382 15458.472569 16376.355438 16108.137519 19153.733572 17587.471305 15407.113949 19531.016849 17639.001871 19926.832674 22889.429371 14027.837457 16432.994796 12439.651014 14723.887357 19783.023820 17250.268551 13901.607566 19185.778874 18691.457555 22373.345621 20451.212973 17780.457306 19600.422499 19585.368529 20248.402378 156.660117 -7604.283896 15913.726542 15000.462389 14636.945217 14373.971731 17152.990078 20366.953882 14042.415202 11094.633504 16498.586008 16974.479284 19382.190722 18149.639548 10341.884735 15559.669985 16697.105340 16108.571248 5095.744191 15870.824965 18494.206297 16809.082998 15278.903994 19793.257794 16989.264894 15443.031734 16367.208878 12177.543010 8590.509280 8864.161810 16508.598433 16009.593432 16770.855706 11212.252690 20377.676362 11961.293221 13295.011087 17475.985751 14961.919044 17029.677423 7002.192620 6528.349360 12639.816496 4469.584642 17862.515144 8515.607961 12716.637359 13443.858150 10956.059930 9924.583803 15008.588981 3491.107273 13841.983025 17034.132755 11791.285185 8258.746599 17610.002725 2644.861270 17067.652956 16996.793953 17750.902283 20541.893848 16000.315073 13675.460499 14551.961714 10941.758025 23401.715060 9365.830295 13914.396205 18078.441530 11191.666456 12271.846854 4292.914870 14112.355716 19072.979336 10971.284676 9563.091390 7721.053507 3029.038195 8134.263846 18089.369378 9211.019051 6513.862431 7211.042742 2250.890082 2841.986101 17490.573184 18546.481724 20981.617567 22115.203615 21399.603700 20224.418288 22227.105326 15846.892321 18990.870023 16063.751027 11758.268454 16886.755625 22251.356699 10839.093416 14510.913026 17660.432113 3448.912278 17116.021569 13707.726892 10225.198031 9081.604491 21234.221735 8293.144574 11527.621547 5368.817515 4799.910816 4371.016519 6830.270397 17603.258324 18586.633453 20266.318909 22300.989807 22062.547628 19333.402061 10386.382614 5968.276694 12849.521295 18226.462597 18534.203156 18848.972175 20009.749495 14478.731462 22920.016677 16137.647700 12537.131546 13274.950802 7255.648878 17495.696801 7890.829564 16535.253532 13255.185750 8622.047201 8520.038461 1971.626068 6927.485937 1047.852518 17643.480696 17932.955202 19366.042574 21387.203894 22320.105371 22599.719061 20546.302353 20435.132386 17705.541251 18271.920724 15787.363008 18814.158221 11188.329297 15271.756426 19113.409996 17874.830497 12334.910960 12920.055065 4650.165987 5768.224533 13070.656958 12813.271787 7341.592392 7481.296741 10478.427704 -82.059522 4050.736125 5127.431953 17840.448243 18903.735830 22206.462759 24755.044754 23513.093250 24754.483161 21659.387930 24984.774480 15629.429002 11346.018868 14548.042384 21097.224282 21536.639069 20767.459265 8452.690149 7775.623983 10435.733284 12115.786243 13567.593519 5048.090820 18640.524565 9473.290085 5749.728326 10046.931398 7119.606370 7137.248041 6131.399576 2032.032928 18002.954355 16965.300406 18092.467915 24746.659012 22796.243702 19907.500299 22403.857266 17084.856239 11800.328908 18408.636792 11680.901539 12519.214981 8049.727067 6972.492074 8010.912544 5770.375486 11071.350771 6806.268091 9164.350925 5537.606225 10124.154657 7451.684606 7431.219941 7796.485119 11001.306908 7158.231693 4044.674949 891.799438 18187.746704 15275.147884 12956.165757 27752.033101 20946.593133 23608.171360 20418.901201 20948.610781 11189.326184 18775.301817 10268.339861 13883.066888 2572.326033 10946.401742 12142.574507 13579.092936 4850.041690 9192.314105 11915.797169 5937.357247 8120.267987 2567.742673 6540.252726 9865.511121 14184.850090 7713.892773 657.308883 2698.197536 18637.441666 18083.493376 16630.909880 23157.531218 16314.135814 23838.599598 26266.796904 20451.501015 12707.178223 15038.915633 8477.852881 11317.027786 15251.830657 13880.975416 5765.430233 16841.628987 19372.169577 11488.355872 2002.693120 2981.808965 1410.751439 4588.561686 11702.764893 18264.684809 7383.095072 1039.820497 1047.626645 4644.411887 19284.439723 20341.921165 22802.357494 17716.302334 24725.115139 20179.959153 26506.314946 9847.774529 17761.936691 12656.326517 14020.711367 7067.460365 11010.261087 7038.943066 6419.166135 7212.371326 4085.073810 428.190999 5879.491604 5887.726293 5319.083590 3259.479019 8816.058515 427.515453 12835.010329 12838.927115 1932.264775 1787.936105 19557.984204 19626.227990 22348.433090 19969.228596 14871.927518 15758.936654 15715.576864 25611.627856 16595.172363 14998.071832 20117.392201 3132.581579 6844.745079 2002.268003 4719.315747 2520.870514 9290.829750 2133.391267 12476.723150 7908.417320 10132.408922 3563.387076 14810.035568 5436.611699 6979.852915 9353.441994 1882.772456 1722.349087 19514.862066 19354.431339 19159.409818 20592.684949 22735.507861 20422.790016 13533.647146 17180.570939 9193.735729 9684.403727 15721.123078 5452.958041 5208.647496 208.653213 801.125588 741.631634 1887.115932 2265.636561 6717.079617 2398.771936 93.660947 3832.090164 1447.654376 3720.800156 2485.698926 3935.905185 245.669396 2895.496344 19815.550933 21437.043355 23537.100466 22238.655170 19659.977029 19341.660065 16815.735844 7901.491031 11944.527256 5026.806886 5465.171570 4104.929682 3299.609060 20309.323077 23069.966193 25166.109230 19775.187848 19645.658380 10431.675246 16964.385926 14240.116962 7767.436420 14318.426840 320.466229 1930.619138 731.655708 20462.027824 23430.557208 25742.105474 15574.998402 22172.268110 18870.545073 15827.017332 10144.288800 2770.121752 2149.355187 6218.180415 3196.819834 1491.642921 20281.478412 21319.911912 23996.521717 16994.167255 17782.726016 10820.661533 13389.117884 7482.035327 6485.481190 1866.476699 10266.792139 7986.072639 -801.501960 20342.007956 22903.974992 25746.965628 24622.548329 9887.368266 11247.109918 9873.114850 11191.067231 5966.815727 2397.425078 1300.585467 689.430315 2429.050287 20571.271564 21546.310060 23242.342807 22804.246068 15443.455626 16125.414698 20594.034518 7050.239037 5247.294294 45.307720 1316.733352 3613.634486 1028.106854 20759.174832 21451.303790 21133.099950 22217.812765 24634.194403 19483.426615 11023.192187 15116.278029 1836.060559 6093.756625 8887.037771 5979.133763 1870.385558 20908.175669 21788.725397 24949.112786 20000.129196 21897.642302 13164.363618 21358.765917 3169.469969 8432.035558 3358.122019 4810.118059 5751.683187 290.008155 20957.293019 20781.650450 24732.518450 20392.208697 18251.103762 19929.590183 17626.778563 5538.285401 15494.466609 -868.028691 8842.095767 1179.631314 1441.698956 21039.895312 19502.785166 19842.180436 19682.973403 20711.951535 16932.547929 13832.635659 13705.546548 7887.606542 6713.332496 12517.563698 8274.527808 635.222455 20879.099102 21104.924704 25106.760992 22806.113989 15558.331115 14208.480127 20618.926150 4147.300751 5617.192437 6153.332103 9835.143621 7052.887211 4741.946282 20840.088058 23641.011389 34016.468748 20922.642025 15294.350434 16747.315921 12677.498089 3828.657590 12273.973522 8307.829829 5149.775933 9537.013471 2147.536138 21420.170343 25030.933407 30473.676486 20800.299882 19614.511096 19971.188507 14541.873615 15023.554945 8893.911521 3008.169454 8209.973754 3582.410247 4054.837884 22008.069028 23677.356178 25287.650501 20219.488102 13696.758325 12075.251657 9906.788911 363.952608 3598.613721 12998.985606 12332.734341 5679.266513 1160.948865 22577.343615 24792.506570 24398.685276 20410.842841 21633.700732 21462.662878 7562.958349 18577.137310 5218.039563 8391.963023 11912.438239 12221.777388 3029.323711 23175.276207 22558.628804 18993.541536 18495.787020 17275.038703 24443.143833 15300.654665 16398.947556 7169.867945 6691.365803 5311.145314 11310.786084 487.138168 23496.813416 23717.884471 23122.835787 18038.061470 14452.736269 13822.567417 14342.215089 12910.098760 8096.253674 13217.741200 4855.822599 4278.893830 1512.829216 23635.784774 24578.334113 24067.342178 20829.816717 17680.475280 19199.575764 11108.960673 17305.817330 16509.105139 11228.632195 10401.662493 5436.831382 1129.559420 23064.034372 22003.064918 19006.419967 21830.542835 17444.942798 16235.996473 20137.215459 17416.865995 5509.333190 3032.786963 13623.031512 8285.836789 400.478580 22816.228528 26631.087390 28946.108998 25615.976180 24079.701942 18017.714751 11016.583450 10220.390486 7272.939759 16734.988854 8175.422980 8832.061446 1221.622433 23223.373570 26542.093751 26443.760421 24231.891992 20407.404727 17645.026739 18143.705847 18432.145006 22027.161509 11796.135072 9332.138132 5077.475335 98.259205 23405.681241 24522.559060 21488.879055 24310.619103 23052.017014 25057.066622 14258.268394 19425.056766 13054.906707 14991.633537 6750.637607 10066.195909 3518.499355 23518.938577 25657.392755 25406.981597 25134.745530 22102.294272 14672.594204 23731.665418 15289.116723 5169.294621 11362.631027 936.113399 5168.222799 871.811371 23599.640586 23316.224830 26336.681057 24794.087455 22264.307758 24075.885624 19844.878439 21039.429712 18694.139329 13703.420191 10926.514408 5789.250345 -146.882162 23548.990215 23069.129494 22584.843147 23649.043637 22876.966012 22824.012734 16812.099087 17723.423939 17486.325675 6298.436421 6603.853297 4286.350019 1349.271471 23358.074946 23001.791179 23143.753887 26805.164633 22480.289491 17226.338323 18933.975537 18253.075360 13295.092542 4172.964656 5183.429140 4336.362687 3272.601832 23275.914458 27368.104792 30828.209309 21270.931364 20701.783377 20676.878399 14683.442793 11338.604951 13691.413741 7671.694134 4419.484997 -13.789128 -531.319869 23261.354697 22777.570697 24347.293963 17648.408685 21328.499396 16460.816194 11958.763683 10784.363001 15061.966488 12272.885615 4120.347720 3428.603415 1943.030322 23113.850051 22428.955496 24448.567550 24233.510771 20876.178334 19436.170083 15622.516743 16647.712483 13670.538025 5686.647929 10191.511664 4341.388104 1562.466313 23458.799334 24733.294155 21985.664644 24692.553944 22781.710023 21108.859502 17125.473887 18606.295486 14118.255999 4850.274838 278.070703 1494.084004 1317.203548 23879.946939 23953.331166 24000.138817 19389.615071 18875.402663 20265.866890 21575.639995 13412.686394 5427.870671 7127.651415 1871.655549 467.665994 4412.827223 24170.574347 25372.719657 22737.660222 24586.240474 22936.934186 18455.397838 8222.516399 10987.655535 7341.652478 8812.512630 5079.596756 4518.288742 -2191.076956 24305.200511 22976.609341 18255.767118 22889.861510 18576.860999 16424.109784 8639.106658 3516.557697 7006.570466 5955.706795 9839.836883 4980.710420 1610.390533 24217.853401 21860.806318 20576.387505 22070.162785 18665.099781 16534.581537 17535.352402 9995.217601 6877.538123 11279.526534 979.015466 2106.920824 3938.897657 24039.843125 23577.729210 22027.722038 22002.077562 21251.023274 19299.153399 14521.535302 9738.647368 8385.631103 5121.008492 4228.342832 4572.751280 3453.165781 24055.236589 25967.973746 27086.680165 22344.322234 22723.100456 16331.126918 17446.345369 11873.176788 5390.767154 9745.482368 6587.744196 2893.811445 5396.953358 23988.143804 22521.672178 21445.896813 21957.935185 20786.502401 13958.630173 13749.508086 5291.658249 4219.575747 6886.925603 4686.357283 -284.058577 1574.130362 23820.064441 22838.169364 20298.486864 17665.669862 23687.137437 14881.496810 13565.791465 4104.249267 10414.941335 12429.172229 529.553257 3119.929623 4855.128896 23804.272328 24121.984985 26471.448097 20404.273826 20562.890216 15835.897744 19346.220591 15101.136165 16607.039488 7034.272302 2760.297654 6318.713150 1543.206706 23670.707592 22869.412840 22215.647964 22078.999183 21062.111656 22152.684947 14651.543834 15416.198511 7885.880915 6465.859734 4567.005722 7241.986282 2717.438302 23349.024417 23848.327174 23275.198523 21997.280922 15941.815802 22028.468875 17208.095653 13585.521207 9431.253172 6340.615089 5300.401098 1606.980490 2873.479754 23094.600731 24177.781767 23630.299816 24058.146798 23279.577111 18991.090097 18869.079102 11319.528941 11392.453655 4578.235514 6847.539854 1256.638654 2519.044270 22971.313079 23779.765382 24517.566627 21386.433108 20567.240560 17836.097027 21282.576762 10952.051013 14179.914334 5621.070747 4378.189813 5804.807418 1186.066484 22893.733268 22444.793046 21743.367532 22416.680863 21662.822292 12628.420647 14947.773270 10116.490460 7198.737565 -115.492966 7006.203063 1298.287299 6405.160846 22736.206445 20103.622078 13971.664667 19824.750407 19388.689366 18764.946407 16858.485142 14687.317547 10488.097165 7934.599334 4251.276747 4288.156005 1395.380198 22436.706095 17908.762645 13091.825033 18163.415800 18284.420068 18567.019638 11518.659376 9125.519364 2249.509984 6380.055632 7101.293154 2922.579584 6942.724818 22097.747880 19328.149308 14816.923607 21166.242134 11864.919347 18008.750665 13072.167714 5015.443394 4961.098741 5513.965248 6217.444939 2532.378137 1776.413995 22140.974072 21726.417982 17917.968769 16013.470422 16966.851282 17290.367607 9635.801586 6303.049665 235.242600 6227.684651 2049.460073 6122.304276 3021.502416 22434.671830 22056.174722 17817.474818 19223.795220 16313.648589 13781.179327 3626.831828 9067.909782 9769.396349 8381.090548 1910.059287 2776.671889 352.171129 22894.668974 23817.679982 18234.220777 18562.150733 16245.944586 16740.121525 6141.186514 7328.424487 9166.882692 6917.086657 9611.706678 342.651332 2750.389210 22699.296261 22267.617275 15122.324796 18385.264524 13140.038326 12654.342101 6589.867957 10747.095170 8473.741677 3762.787440 6470.362498 471.541300 2107.286637 22308.628521 20386.930432 14302.944875 11853.803089 19295.390008 11564.408049 9421.869378 10534.320595 8213.982437 3075.624674 5281.400432 2703.484659 5706.136490 22190.304216 20422.041734 16342.831558 15434.561569 14320.894944 11418.681904 18891.589653 11181.476646 6213.814889 8551.547166 9583.827746 5738.673423 5028.429221 22289.774143 18857.618816 12269.398525 13537.905140 12776.645969 12764.816688 10584.646120 14359.700589 13493.310927 6106.972138 9243.061503 4997.009876 1154.320490 22543.003035 20893.713427 15820.798559 15631.063594 13605.756730 11614.169701 7067.088301 9590.413176 8208.596744 11550.511945 833.703819 829.503365 -98.541976 22543.961752 19747.003965 13040.670690 16309.139616 13532.750593 12975.533888 10926.384737 11038.608529 7734.531260 4348.211630 1807.780594 200.238784 -258.841442 22067.917091 19557.563681 17612.250543 14045.402917 11330.151815 15960.757216 9153.171640 12412.799964 10534.032163 4201.882149 4396.285571 8927.914157 4029.189049 21667.920943 18758.567065 12823.030164 13366.852561 10327.463560 12136.222010 10716.506782 9750.293019 7946.482032 9281.267304 5801.002713 5086.818172 11185.792954 21585.825465 21035.969924 16295.291260 15944.878882 11005.653161 13939.712679 13167.620599 12960.301062 14423.174739 5253.642334 1966.998174 926.206715 3078.484594 21564.922995 18818.671882 15127.234647 14197.442304 15332.046299 12984.227823 11270.893518 10578.032579 4600.699193 10552.660107 9765.613351 1934.646921 1406.861284 21637.773130 20016.779276 17429.269074 13664.797475 14291.178645 12281.389566 11418.497126 10414.321946 10332.877458 5305.782815 3436.502193 8336.542956 8009.501007 21586.771088 18136.139417 12982.110133 13792.848755 11987.590135 12040.050413 11648.864928 11120.926831 12533.574740 8501.822463 5418.178161 2906.323147 -1290.242998 21972.565563 21184.619438 20698.197242 11334.985116 12621.152247 14557.879486 11503.683208 10387.601692 4988.266576 10780.944839 4461.826897 6619.401608 4733.391887 22063.588434 18679.582004 13055.360432 11866.933667 14635.782805 14541.135440 12594.836648 11076.771219 5550.466551 4495.628334 7889.117348 1571.438358 4602.409524 22116.357297 20759.880967 18053.850799 17557.001228 15865.217305 14025.243202 11621.781880 10523.872094 8121.540329 8701.162849 3214.554264 2674.916967 7687.252076 21959.825614 20231.548660 15335.677069 11980.448286 14403.408632 14883.219976 15501.331240 8867.343083 11773.952169 3662.247760 3156.773227 -656.073137 -393.648148 21403.414939 20037.242632 16784.817461 15297.281493 12609.827484 12430.220338 11703.940470 13689.932188 7708.440740 4640.372006 3134.335274 3730.164863 10276.178437 21037.958464 19747.434465 19049.005802 15652.976062 13921.987945 16614.946088 11449.476918 9125.637195 7713.384842 11929.282099 4092.822691 1946.571321 -7508.518112 20907.741599 19284.076150 17024.907411 15799.892663 13009.418376 15798.851499 13553.722202 10577.671477 8385.629510 8511.392461 1664.605888 842.980704 -354.995790 20805.408331 20522.613646 18613.202444 15319.379087 13854.100053 11613.603729 8177.875250 11640.409062 9574.095149 10125.690141 8982.082261 2473.938145 402.453994 20612.683040 18473.230085 14419.457260 14363.063844 12232.769606 9070.335088 10768.099599 12698.342129 8837.082471 11264.236297 5566.687336 7914.859096 988.063290 20017.813179 19463.454971 16766.405435 17294.456950 13038.514780 13179.798489 14212.033213 17055.889602 17392.737408 11514.295839 -397.146721 4608.060473 9216.019925 19018.909856 19254.652190 19276.187590 16735.942930 12699.082596 11940.224057 14116.082080 15292.136491 11042.257283 8839.915505 4665.528635 8285.500695 -354.813927 18383.898409 16310.399621 14182.055434 14467.465542 18518.417764 12950.072093 11457.868464 17400.808002 15012.690104 7961.143332 7677.501875 9022.321249 -2232.611355 18113.763485 15230.371718 12299.780172 13203.153785 9916.871853 14097.271675 14039.739599 12908.078056 8741.163314 8865.302296 -900.745977 3109.675162 761.723761 17422.461674 16535.958401 14115.784175 12278.788107 11117.190850 13414.735114 15747.863060 18595.905459 8472.231030 11854.603877 12610.102501 9636.809017 1694.502054 16931.344505 15854.855207 12995.699357 18718.530483 10248.585672 12799.199768 16861.152335 10365.136862 10294.832001 9315.797973 5934.463678 8890.544825 2890.445275 16893.700626 15738.082491 11538.631251 16491.784834 13666.350793 11784.962256 13808.933975 5353.975433 7322.503716 6064.748582 9101.304755 14485.347891 9745.555514 16674.435957 16798.578787 16330.193219 12044.233400 9097.307235 13974.202110 9675.782398 20588.950533 9915.258571 7964.439156 4893.959681 5935.112229 -409.601054 16085.039268 14683.557882 11431.366378 13691.730050 12899.866702 10192.856545 14050.592225 6618.973606 12039.611650 6846.698002 15288.409018 3844.713456 -348.402773 15679.416928 14153.711247 10308.780093 14497.021660 13230.773093 17757.603859 14208.570891 12335.727843 6611.249236 16766.922324 12643.514086 9218.539818 2382.218507 15400.612500 14632.478720 12738.232865 13596.206201 6662.068921 16756.542990 14868.570037 4334.947797 9570.897961 3246.693787 8733.772608 13547.751390 9124.151612 14526.588201 15167.107972 14571.500525 10683.888136 13029.450107 10319.234131 14449.202614 13973.005674 10229.710191 9673.265600 9190.238774 9758.349264 12667.875896 12983.131351 11855.898478 6630.615933 15366.858749 14712.615055 10516.007277 14920.270943 15138.161519 6916.561669 15614.209591 13815.944276 10420.211588 11514.243458 11386.001440 9265.154163 1861.102194 14628.198706 12216.361180 12600.496993 7863.487284 14602.115004 12488.601243 13083.945303 11154.410907 6878.489684 5463.468944 10786.559089 10155.063743 7876.388086 12161.035305 13948.458082 12453.792693 12666.625049 10784.548455 3868.174155 12249.417691 4911.709687 11618.129038 9905.426541
</DataArray>
<DataArray type="Float64" Name="Velocity" NumberOfComponents="3" format="ascii">