<VTKFile type="PolyData">
<PolyData>
<Piece NumberOfPoints="2177" NumberOfVerts="2177" NumberOfLines="0" NumberOfStrips="0" NumberOfPolys="0">
<PointData>
<DataArray type="Float64" Name="Pressure" format="ascii">
 18686.132819 18483.853428 18107.917061 17630.712958 17048.923098 16338.128243 15572.155253 14789.801312 14031.343610 13282.404051 12517.649143 11670.735413 10636.614386 9439.956198 8094.427604 6630.159458 5209.428828 4039.616939 3181.589476 2549.599553 2030.354691 1547.702711 1070.547834 600.014301 155.063183 -241.063024 -572.909783 -839.766111 -1051.911300 -1217.412133 -1340.026905 -1425.883826 -1482.600942 -1516.623546 -1532.567929 -1533.570648 -1521.823909 -1498.994223 -1466.481619 -1425.557090 -1377.424689 -1323.242606 -1264.124221 -1201.130709 -1135.261374 -1067.445193 -998.536495 -929.320018 -860.540271 -793.000532 -727.862688 -667.348597 -615.599701 -577.376063 -554.205720 -544.281257 18670.229367 18312.876074 17629.722625 17019.843608 16424.618872 15584.925945 15023.474138 14438.637988 13625.741834 12802.158091 12100.935408 11220.507343 9927.012612 8416.504249 6596.016228 4764.041119 3417.721096 2692.464145 2296.769616 2005.985584 1713.539331 1371.971506 978.643759 556.328668 138.585836 -241.417562 -561.078186 -817.217200 -1032.109713 -1208.329794 -1336.550517 -1424.532160 -1481.977001 -1516.258865 -1532.306541 -1533.359093 -1521.643102 -1498.837119 -1466.345514 -1425.440798 -1377.327452 -1323.163665 -1264.062622 -1201.085142 -1135.229785 -1067.423503 -998.514372 -929.267099 -860.362157 -792.405108 -725.985766 -662.444849 -606.067872 -566.930752 -545.460940 -537.146093 18659.803783 17997.614091 16504.881686 15695.433373 15049.617142 12960.963723 13918.131977 13410.291103 11872.535001 10909.252782 11253.670886 9944.574407 7952.161275 6371.840571 3852.979299 1272.424677 586.585349 807.371864 1208.162339 1372.792180 1352.350664 1173.224155 874.856695 506.767829 119.622468 -241.645840 -543.575558 -771.676256 -987.619831 -1196.597496 -1333.944614 -1424.090298 -1482.076308 -1516.470887 -1532.523728 -1533.557897 -1521.820238 -1498.993165 -1466.481311 -1425.556992 -1377.424632 -1323.242497 -1264.123888 -1201.129631 -1135.257861 -1067.433748 -998.499205 -929.198521 -860.144505 -791.709751 -723.689500 -653.064856 -584.101572 -546.828416 -530.367117 -525.159850 -540.474937 -523.112413 -516.271368 -494.450986 -488.134763 -484.741644 -445.982217 -444.465920 -443.097959 -403.716621 -403.300061 -402.824232 -364.996933 -364.903700 -364.722553 -329.282285 -329.284248 -329.197852 -296.339076 -296.368804 -296.313100 -266.023794 -266.060664 -266.015803 -238.211115 -238.248725 -238.208656 -212.775361 -212.811688 -212.774605 -189.586872 -189.621264 -189.586639 -168.512632 -168.544882 -168.512560 -149.417948 -149.448007 -149.417926 -132.168212 -132.196092 -132.168205 -116.630472 -116.656223 -116.630470 -102.674766 -102.698456 -102.674766 -90.175196 -90.196906 -90.175196 -79.010780 -79.030604 -79.010780 -69.066101 -69.084140 -69.066101 -60.231776 -60.248134 -60.231776 -52.404763 -52.419548 -52.404763 -45.488536 -45.501857 -45.488536 -39.393152 -39.405115 -39.393152 -34.035206 -34.045917 -34.035206 -29.337721 -29.347282 -29.337721 -25.229967 -25.238476 -25.229967 -21.647231 -21.654782 -21.647231 -18.530546 -18.537229 -18.530546 -15.826401 -15.832298 -15.826401 -13.486422 -13.491612 -13.486422 -11.467050 -11.471607 -11.467050 -9.729217 -9.733209 -9.729217 -8.238017 -8.241505 -8.238017 -6.962391 -6.965433 -6.962391 -5.874821 -5.877469 -5.874821 -4.951036 -4.953339 -4.951036 -4.169739 -4.171741 -4.169739 -3.512348 -3.514090 -3.512348 -2.962759 -2.964277 -2.962759 -2.507128 -2.508456 -2.507128 -2.133679 -2.134846 -2.133679 -1.832524 -1.833559 -1.832524 -1.595518 -1.596448 -1.595518 -1.416127 -1.416975 -1.416127 -1.289317 -1.290107 -1.289317 -1.211474 -1.212227 -1.211474 -1.180334 -1.181072 -1.180334 -1.194942 -1.195685 -1.194942 -1.255629 -1.256399 -1.255629 -1.364013 -1.364830 -1.364013 -1.523014 -1.523900 -1.523014 -1.736894 -1.737871 -1.736894 -2.011313 -2.012406 -2.011313 -2.353410 -2.354644 -2.353410 -2.771897 -2.773299 -2.771897 -3.277168 -3.278768 -3.277168 -3.881437 -3.883267 -3.881437 -4.598879 -4.600972 -4.598879 -5.445791 -5.448187 -5.445791 -6.440775 -6.443511 -6.440775 -7.604913 -7.608035 -7.604913 -8.961975 -8.965529 -8.961975 -10.538616 -10.542653 -10.538616 -12.364590 -12.369163 -12.364590 -14.472955 -14.478122 -14.472955 -16.900285 -16.906107 -16.900285 -19.686870 -19.693409 -19.686870 -22.876901 -22.884225 -22.876901 -26.518649 -26.526826 -26.518649 -30.664603 -30.673704 -30.664603 -35.371597 -35.381695 -35.371597 -40.700884 -40.712052 -40.700884 -46.718177 -46.730487 -46.718177 -53.493622 -53.507147 -53.493622 -61.101725 -61.116534 -61.101725 -69.621198 -69.637357 -69.621198 -79.134723 -79.152293 -79.134723 -89.728637 -89.747671 -89.728637 -101.492503 -101.513048 -101.492503 -114.518591 -114.540683 -114.518591 -128.901229 -128.924891 -128.901229 -144.736036 -144.761277 -144.736036 -162.119026 -162.145839 -162.119026 -181.145573 -181.173933 -181.145573 -201.909237 -201.939096 -201.909237 -224.500449 -224.531737 -224.500448 -249.005048 -249.037666 -249.005044 -275.502677 -275.536500 -275.502667 -304.065054 -304.099919 -304.065020 -334.754101 -334.789792 -334.753988 -367.619987 -367.656197 -367.619621 -402.699130 -402.735318 -402.697944 -440.012321 -440.047271 -440.008472 -479.563477 -479.593861 -479.550984 -521.340596 -521.356278 -521.300049 -565.324043 -565.292600 -565.192453 -611.519653 -611.333649 -611.092573 -660.070325 -659.362086 -658.685298 -711.843414 -709.131515 -707.330135 -767.169859 -757.099605 -752.938712 -795.344961 -779.271559 -772.361973 12390.536255 12417.646019 13454.376752 12175.236481 13333.089001 11497.445270 8324.345711 9083.030936 7578.559568 5776.796800 5040.515172 4524.155789 2985.790340 2842.376102 2205.944303 1436.700608 915.231260 548.871885 283.521335 83.955661 -74.075604 -207.811960 -329.129753 -445.558626 -561.147713 -677.306730 -793.585134 -908.339687 -1019.276554 -1123.878022 -1219.728061 -1304.746534 -1377.338490 -1436.465757 -1481.651640 -1512.933526 -1530.780522 -1535.993236 -1529.600612 -1512.765108 -1486.703386 -1452.625735 -1411.694327 -1364.998112 -1313.540878 -1258.238234 -1199.918380 -1139.318365 -1077.056177 -1013.515336 -948.490415 -878.546797 -814.961910 -787.340735 -775.528698 -771.410021 12409.612760 12230.383254 12417.250919 12779.638651 11867.037506 10641.134196 9429.677884 8904.356146 7689.323406 6226.599564 5098.869662 4294.269346 3242.294870 2569.781741 1973.492330 1384.374626 903.742193 547.324114 283.870357 84.459676 -73.735193 -207.638901 -329.070874 -445.560809 -561.169228 -677.318097 -793.567499 -908.282819 -1019.177053 -1123.737756 -1219.552738 -1304.544330 -1377.118771 -1436.237956 -1481.424384 -1512.714041 -1530.574338 -1535.804139 -1529.430791 -1512.615429 -1486.573710 -1452.515255 -1411.601892 -1364.922594 -1313.481796 -1258.197373 -1199.904774 -1139.364488 -1077.271156 -1014.268071 -950.999869 -888.601550 -833.470653 -800.842909 -784.913473 -779.012426 12339.149275 12250.938518 12042.567280 11669.181658 10825.008613 10099.548101 9323.358519 8417.348503 7368.055069 6259.115652 5175.471443 4169.474661 3256.399555 2514.911259 1890.228617 1341.795029 890.435993 543.071169 282.250167 83.698245 -74.125844 -207.822706 -329.132583 -445.559467 -561.147939 -677.306767 -793.585126 -908.339675 -1019.276546 -1123.878018 -1219.728060 -1304.746533 -1377.338490 -1436.465757 -1481.651640 -1512.933526 -1530.780522 -1535.993237 -1529.600615 -1512.765120 -1486.703422 -1452.625853 -1411.694709 -1364.999355 -1313.544922 -1258.251391 -1199.961173 -1139.457567 -1077.508885 -1014.990168 -953.239619 -895.046179 -845.743033 -811.608743 -792.498712 -784.802839 18810.305111 18403.289536 17184.538266 16209.964536 16844.080462 13061.957389 14570.891442 12547.662093 9386.816371 8379.318464 10151.103725 7238.487135 6466.755250 4567.730126 1237.199035 -1893.320400 -2159.741014 136.696456 880.248351 1194.352508 1253.280622 1119.522707 847.014747 493.336152 114.099326 -242.291276 -537.908552 -748.288987 19462.557087 20826.078033 21054.607013 15525.217563 15002.186928 15962.997934 16412.152529 16788.509361 12937.852971 14072.026826 14482.574854 17049.416046 17602.783420 14988.435328 21094.004969 18117.699730 13053.763539 17587.462177 14298.879430 20715.468859 16869.023218 16531.537213 15227.503562 16770.410075 16216.074017 15965.861604 7574.706898 8536.470065 19837.140109 20581.281576 20046.509226 11878.778818 10402.750767 18036.204349 12381.997639 15675.535112 15375.762825 14677.876667 10270.056234 16775.514668 15831.433082 16210.120501 12200.691113 18661.461269 12367.025162 12394.240767 16642.519205 14100.578234 18016.346076 13593.072367 16124.093467 12809.887842 13108.922954 17898.524209 15439.207170 16520.410997 19976.791043 19643.414022 20407.360829 14871.438589 15469.912775 10919.368599 10561.982942 17266.560457 16810.332316 10320.636079 6499.677538 12150.692007 22688.641597 11457.343897 17722.140126 16958.251617 14144.220973 12855.512179 12959.314368 16099.687196 16916.261059 11708.365389 11488.347032 14644.819508 15292.238418 11877.013496 18264.771000 11250.725203 20489.622922 19875.358417 19870.751605 14732.303458 17039.210709 13989.435362 11275.904880 11098.681802 18620.827873 6047.637743 11332.170902 17589.284564 14863.003133 21691.612883 7909.296731 10349.912254 13175.842875 6454.853172 14509.004295 12492.977487 4579.747987 16800.176088 11241.206504 6101.693815 9832.888453 12809.511834 5875.158923 11018.005638 20726.489313 19834.500990 16760.588714 16637.585708 15381.222593 17342.283629 18229.067964 11555.810140 18165.497802 8086.881119 14091.259313 11204.813099 13979.777236 6415.851208 11864.794911 18128.424935 12340.526856 10065.736415 15232.565944 20705.317974 10824.167508 16062.066996 14015.154854 9166.629016 15358.836734 7486.918580 13382.014583 8232.566214 20531.049466 20558.623743 19052.111846 14584.899893 13021.047363 17575.338988 7798.217949 9808.474957 15670.476365 7812.120952 17098.330815 14922.327881 17008.831097 14332.016528 13325.168087 6741.873778 10232.649564 18740.135180 11622.214350 9246.143948 6144.743103 11491.364149 11334.291094 13845.738957 9924.586019 9931.974781 10171.720664 4909.517589 20022.193649 19615.825267 19322.814623 14261.320821 11964.491913 12814.067159 11536.692816 15402.506195 14055.487985 14663.095564 17343.499669 18918.322225 13504.361791 9934.734276 15402.290877 17551.442089 13138.089349 18049.593722 10567.854039 12181.897493 18346.605887 11451.918896 11663.578958 4457.822585 8445.178302 11176.813235 7005.103752 12896.619590 19426.938540 20474.677689 22787.412166 11975.732609 18132.529492 12095.673112 14163.705569 15604.391807 15581.404381 9386.264556 9140.015083 10272.534406 13512.258091 15362.714034 9026.454581 9975.278625 11319.598027 5494.174180 8405.891613 4426.972288 10924.044027 13089.634706 4479.730067 11121.167428 9982.290160 7804.969565 9350.245276 5367.372187 19428.812796 20110.837336 21783.795553 16232.066807 13912.559302 14379.359315 11423.172757 18352.396558 7641.409983 14320.628461 4715.255122 8165.257782 9950.389749 6810.878443 9029.581900 6836.315764 5645.199010 12357.584121 12459.308086 3354.715770 9344.240709 12673.717680 6328.672629 10802.313113 10065.252907 11380.508159 6786.012645 3807.171491 19970.621791 20232.708867 21175.466748 13022.044362 12409.077556 16563.251104 15967.586840 12780.183592 10058.754353 16455.539174 9714.488041 16691.064464 8295.879486 6873.545659 15614.773493 5768.868234 2948.724686 8070.934188 13770.298015 8586.240952 10080.483532 5418.763360 9421.438513 8415.395970 15936.817041 9151.336409 4415.429552 2938.023961 20231.674201 19920.222688 17593.865794 20693.205617 16084.843491 14727.633467 13660.453288 13820.433320 9085.111600 14502.537249 6939.330102 19171.097486 15152.065265 12305.838417 12146.595330 11635.017138 12589.699631 7682.422761 3392.717427 7932.414009 5730.471890 6550.576891 11594.944529 13653.616737 7469.608366 9643.539209 5905.330049 2696.484679 20162.069226 18847.643270 16718.050870 9262.112937 17645.882556 13451.260361 12314.531105 6478.952818 15742.359408 15162.661899 12783.915304 7305.460889 5749.604917 8062.563959 13200.209566 16941.332850 7510.731672 5248.024214 14012.354832 14986.005383 15115.844196 12414.085862 8736.200504 10920.842813 12610.526438 15006.134520 4607.141036 11299.414189 20131.181932 19470.116821 15477.122439 16744.086163 19251.921771 14134.714009 17705.104353 13429.818821 9026.573943 13305.379961 15602.576048 4117.125359 9006.899125 7773.325890 3576.842195 5817.673207 8318.824859 2658.114276 13856.536678 7834.939226 16159.740232 4762.338044 14158.651153 8596.697796 8715.808264 11467.585252 7807.825151 2223.515097 20341.993597 20319.381126 16138.619844 12839.798497 15281.466469 16111.280031 13974.528668 16618.870339 7358.654522 17734.886157 13981.463371 9014.838408 10256.031552 2131.552319 3385.794527 4942.575683 4304.105094 4082.010453 4474.472501 4288.816388 8698.724573 3265.609519 5091.066980 7427.377384 7002.591173 5161.818215 3221.254457 5435.081247 20644.585531 18807.820799 14687.735084 19425.248052 16880.862227 19244.906720 13737.226632 16473.729380 10589.195741 9122.106324 12434.067174 6597.618918 4728.333362 20729.278449 20164.023156 18711.869781 16220.552045 19171.113600 15511.223203 17726.853248 13407.583447 14669.210656 10144.558069 8062.902388 6966.747152 5228.127762 20245.084517 19401.809132 17613.740044 11506.034828 16489.294029 15978.488478 8025.384767 14794.191167 7208.208453 9630.821532 7490.102694 6362.519990 3985.666950 20062.799398 17747.198326 15633.526327 13529.478945 11760.585140 9505.013858 14505.335510 12795.590166 9946.854134 9629.874571 7610.408953 10865.634741 3878.616581 20152.300356 19737.639926 17588.449186 16650.963604 9022.213579 9369.683897 9070.936703 15717.670045 11502.092639 10665.543487 5268.846839 4090.289291 6052.322789 20156.167895 19057.289397 16712.117269 16353.616244 15553.818389 14468.335160 8365.512780 11612.050997 11770.005994 10342.174318 7972.010680 6759.723651 1849.209222 19885.609385 19481.509878 19758.668216 15669.012687 18701.169597 11210.922828 10790.951290 9325.210330 5122.806989 15538.418928 7529.735350 13390.065994 3984.999240 19453.792033 17860.854986 16487.034348 17922.038853 14453.362633 13552.715466 8155.292745 7609.786371 13383.153263 7153.655917 7804.400456 3792.606642 6076.896930 19225.048993 19628.447678 21229.511430 14590.284500 19760.718085 16173.593134 10718.982406 10221.077799 11904.303691 9687.288110 10382.236118 4644.703150 3747.727197 19235.228903 23142.685732 25425.064573 8600.192678 17827.930142 17008.496865 9014.433585 9120.440235 7746.754662 7015.513464 10809.535808 4673.133819 5438.704966 19368.687227 21405.657277 19437.013899 19092.705390 14860.484125 13898.523565 16580.025653 6689.243895 4580.265933 9615.311190 10663.679684 12225.297145 7025.888273 19442.385671 20915.316084 19892.375035 15844.760098 12103.094411 15423.382195 5145.465975 8858.331210 11159.695016 15810.988030 6059.637660 9494.824567 4574.960491 19553.092030 20701.803193 22915.524444 16895.781235 15065.976677 15116.519640 12098.315875 13654.133854 11117.570771 5907.960601 13531.154217 8537.651708 5601.441839 19843.588235 19071.426204 20014.957200 13126.749619 7813.004191 11343.556360 7583.358364 6630.829564 10482.258697 12877.231632 9764.897547 9066.080290 10971.993771 20290.918888 19142.031462 19145.003404 10844.362084 15262.219409 15427.779552 10017.605342 13929.316832 6481.504347 9023.289658 6036.517836 11051.848315 5142.348679 20264.436537 21451.289318 22440.862007 16011.089656 11727.439047 18604.287220 13482.905960 7199.963607 12713.218176 10070.068308 7540.286586 9409.784465 5635.005728 19838.490489 20943.726416 20091.703180 11655.023955 8614.570752 11441.068453 5037.827731 17851.788723 7365.720580 11563.998190 3795.498763 9050.047342 5096.872747 19384.847562 20289.484214 18973.275333 18321.398284 15425.644986 11842.500470 7673.156809 12904.123988 10690.897017 11645.958123 11864.767474 6879.189943 5826.496059 19182.854254 18630.688302 17835.037457 16233.402537 12017.892259 11042.784630 13743.988187 6376.111317 10427.384251 10092.881535 9153.111145 7544.946546 5795.964391 19279.562578 19566.834325 20015.778798 14059.252527 20755.619743 9611.670472 8330.243150 11505.853886 4341.461420 12798.087415 4943.768628 4384.638516 7694.496972 19225.056109 19782.911022 20934.374099 16680.062131 13421.307914 13961.271483 13055.295458 8757.488797 9684.332309 6447.425396 6838.199748 7900.969505 4775.546202 19125.473265 16692.241214 14578.815873 19449.608110 16223.060615 16607.698841 12077.389139 11888.381001 8354.375766 11056.689061 5887.897147 6760.554592 5510.754205 19057.063448 17254.011033 17977.794803 18750.134939 11419.412935 13211.038021 16200.674203 12120.796698 8737.706411 9169.009155 9705.188850 8197.993271 6234.896224 18925.879844 17967.812794 18600.765031 11519.013972 18569.367954 12754.729595 11117.023684 11162.850794 13771.041194 13783.351100 7674.640080 6551.277730 6490.784720 18535.484010 17730.806258 15192.489013 15597.880483 14103.377592 13473.264039 14039.826804 12402.673541 13364.619962 8293.034561 6645.838175 10014.241754 4094.937250 18050.962591 17369.802633 19788.463237 16313.323803 17543.986326 6275.675034 14456.581308 13119.443846 9870.818724 6052.346858 7437.172138 7082.782213 10375.575851 18261.880581 18309.739583 20302.094129 10232.887892 14500.797746 14439.315718 9034.638876 9204.704830 11538.654554 7318.435052 7786.662613 5902.371017 6137.431563 18727.716254 18917.715322 16926.716604 12646.916762 9710.521820 9824.403423 9464.573603 8753.063945 9622.581726 8143.617349 7887.332698 7426.600587 4196.094720 18912.818451 19072.940658 16977.522340 13255.893921 15615.008930 13729.438322 8540.376540 12478.898201 8048.067908 10446.527144 9615.288767 6750.771103 4519.011818 18875.198913 19228.213551 17387.149174 10836.574353 11866.901907 15776.024653 11337.920184 14054.955741 11535.224222 9778.562173 9398.065783 5591.997506 4803.033527 18616.885203 19616.278176 20212.424959 13412.401829 7671.654689 15233.579545 11770.024478 7704.833354 5953.078291 6277.815493 8837.030213 6552.512426 5147.211954 18262.331437 20321.382502 21522.551645 13746.535931 11006.260208 8132.740960 15497.855099 9268.894769 8044.268566 9912.713381 5070.657074 8219.977840 4933.434994 17806.094225 19027.821287 20141.701918 13491.866377 13003.172137 8892.790469 4421.242378 9278.259393 4648.169171 5878.585784 5892.467923 7889.661192 4385.988993 17372.406759 18408.796564 20428.035807 17615.745020 16335.055486 10224.770980 8715.747509 9398.456810 11411.211964 9682.832322 6311.649513 2328.212657 3865.608776 17300.063281 18524.331508 21612.535562 13711.217181 13758.411301 12114.071413 8329.101785 10613.279584 6987.646651 7007.219952 5869.988893 4523.297845 5663.495762 17412.726912 17683.855836 18356.733320 15668.810107 7185.554804 13261.304107 15087.244585 7366.776656 11458.726853 7740.535956 7093.405518 5714.950950 4077.767496 17662.230212 18305.545739 17538.282729 18547.568589 10379.411515 13710.205452 7138.980416 6540.675890 6895.629539 9341.264809 5589.508358 6230.791985 4366.709870 17658.500824 18958.480585 16625.930331 11943.457296 13014.569629 9858.504376 11514.809221 7220.996129 5053.106456 9173.734733 6714.709109 8920.095476 7357.670809 17043.882545 17891.418933 15493.814724 15980.599046 14316.932544 13576.131944 9770.417499 9207.248271 12034.278812 6804.104808 6957.004652 9785.700744 2987.670708 16418.527564 17826.157241 20767.604230 14189.503060 11891.540675 14440.733272 12525.553054 7997.092505 5263.346225 5690.682505 7174.326374 10113.291298 4244.730526 16440.021944 16621.899003 18518.647116 16436.562488 11913.547367 14631.371307 10462.487678 10821.659743 6568.992942 11364.773349 8300.208201 11398.702353 5175.576405 16847.143532 17629.700155 18436.094822 16315.369765 13877.454831 10632.501914 11154.619452 8865.803790 15049.635146 9200.375441 4606.902519 6190.208388 3541.204946 17005.788113 17367.517422 16441.504756 13638.383839 16242.327027 16460.763655 11608.978219 11562.736009 10343.996049 3695.860279 5048.340980 9978.809566 4659.725657 16865.920283 16669.561767 14149.370509 18156.193904 10414.453491 7679.602512 15252.272377 13165.637352 8463.966303 10163.994736 7567.144157 6068.273224 3345.924186 16677.666679 17543.778541 18007.083640 13403.248690 14548.930133 15686.027592 16145.341795 10164.757832 8707.094415 5272.458346 4093.639004 7431.435733 5429.453902 16451.892854 17402.645503 17289.315590 10681.713374 11613.773883 11592.917131 5348.081219 7101.873804 6573.021072 11690.800540 12802.104994 7129.392420 6079.503570 16216.206063 16346.466913 15650.071004 10049.656074 13557.174393 13559.319929 14136.371713 10200.264327 4359.678777 4695.729197 6054.352992 5730.088992 10316.644891 16022.725144 16503.336231 16162.443286 12590.837725 11793.240890 11353.023340 12610.883612 10145.350668 8722.780936 8941.473957 5757.759311 8814.731259 3047.468244 16021.899042 17596.789811 17877.816024 15862.988410 12147.224011 13879.087910 9546.901899 8804.871400 8648.193340 7861.425399 3934.241607 6151.381835 6396.501562 16199.483803 15775.769926 13485.700068 15492.818276 14664.276350 10407.230234 13887.168778 9287.976273 8857.907731 7822.712292 9618.511401 3082.065371 4837.248656 16282.593847 15342.291809 12627.532338 15050.083807 10313.372258 16200.091604 7648.170032 8630.145637 9926.520423 7955.352809 12366.740753 5006.675657 6205.827171 16205.353248 15390.071936 13454.150300 17475.646906 13736.895516 10642.247548 9047.706954 9492.379416 10062.811073 6879.596808 5520.626605 7760.443210 6274.709289 15980.929757 16189.784908 14130.116309 12008.375151 16994.235842 5147.244328 9591.164866 11012.033134 10240.865432 2727.781925 8555.166398 3725.143001 7610.889621 15627.702510 18262.746885 18659.668651 14841.788120 10608.488085 13651.960483 9586.662299 9661.782686 12874.334633 9341.502221 10440.331168 9561.165846 3366.825257 15269.195272 16819.956869 18134.571681 15497.573499 13825.874665 9135.762825 10997.343192 6507.112572 9513.002266 10228.739410 5679.103003 13149.407094 2412.542039 14986.951403 15593.763388 18668.830399 13474.951881 12519.299572 12321.079988 12507.214950 11260.496493 12893.824305 5966.033091 10150.484753 6284.948692 4591.897869 14829.214370 15125.266583 17733.309861 12452.988995 9858.923015 10566.829866 10544.501263 8355.847124 5812.937381 8031.845319 4691.899565 7829.301738 5623.869048 14677.445569 15814.240672 15289.808145 15799.832028 9809.237552 13150.472423 13171.453729 14415.559004 12876.896949 12789.096280 11584.068414 6085.319835 4770.563956 14723.447625 17546.381344 16889.516165 12212.812355 12512.169875 9550.606754 11720.411129 10867.799115 8518.072608 10615.478880 7211.858013 4040.037379 2313.929497 15028.486397 14765.616522 11401.224796 16933.012481 15269.362308 10835.604926 10133.446774 7496.452877 7712.326461 11322.338701 5636.842255 7124.876766 4837.377891 15207.237165 13179.482714 8557.703638 16168.420618 6905.977170 11601.710116 10346.257968 8257.542415 9106.055989 7952.191122 5890.917622 8685.355550 3690.530678 15272.286839 14607.271709 11304.510053 6624.745375 12466.188655 14178.053305 12009.293577 6181.424875 11249.243174 10252.802964 8037.222228 4749.424378 3570.245140 15205.941761 14522.405373 12183.657721 11756.831123 9462.328742 11408.477282 14124.076059 7984.765933 13924.431387 11956.662615 4174.319800 2266.099736 5553.072093 14901.709393 14085.698201 15618.689116 13589.563424 8254.764119 11284.766168 13792.927061 17274.462864 6564.953318 4308.114986 5644.805136 5098.133479 4358.262112 14871.491515 14059.610743 15485.575902 17173.140231 9057.834019 13181.278375 9011.546986 13508.154231 11637.045189 10125.075848 6058.939417 4519.478484 5464.430462 15028.420503 15419.261903 15109.715446 14388.465090 9862.419568 8533.643668 11239.399893 8746.831581 11604.107767 8335.980976 6178.517566 5566.082413 4675.399925 14909.535168 15750.614788 13464.134880 11594.664907 10151.874009 11871.334173 15131.089450 13129.090439 5835.798028 10848.466693 12305.546051 7531.717308 2727.626751 14699.321960 14432.043830 11844.582877 10423.876919 12649.646660 8270.373048 11998.846177 15351.553651 6900.982107 10823.990195 7888.406203 6263.870095 2738.663433 14377.876120 13486.783045 12188.744944 15009.802196 6594.839032 15810.822027 11587.873388 7930.296572 8336.371205 10516.521351 7174.834869 6983.757411 6123.690954 14175.935622 13700.946362 14151.237553 12140.304856 16385.625488 11382.532673 8616.261217 11521.975319 10285.676723 8577.729573 8840.111721 8142.658174 3890.089585 14167.300340 15084.200324 16310.264602 7352.592714 11853.726490 7419.097972 13010.009672 10487.232758 10664.725452 10721.514512 4624.442131 7830.986634 3521.793731 14150.746908 15279.187385 18162.998943 15309.710438 12930.955118 6727.254364 10415.808594 8158.737115 13258.964682 9770.868041 3095.977964 5594.334665 5993.737498 14198.581981 15704.593025 19257.129387 8485.270182 10245.675465 11710.553960 10990.666412 9715.660092 10640.738165 8514.230534 12911.856925 13377.713189 4648.901888 14349.286261 14765.556236 15138.331227 13141.959709 11064.604615 13730.320173 12626.665344 11145.556122 8247.787886 11420.143618 9550.040674 3964.212037 3956.231985 14409.076534 15163.427578 12917.373262 10153.824734 10423.009163 9741.995393 11492.879764 8142.851425 11373.495717 6720.617712 4258.651332 7719.988441 5358.449903 14283.964423 14610.506413 12023.885670 15236.207799 11107.351078 12055.068445 9683.434717 9731.677770 8938.060200 10403.140150 13009.894045 5938.841139 4277.785841 13957.495861 11459.770914 7990.306021 10885.366267 16014.586719 7167.491184 10936.620934 12811.806031 9441.322325 11851.004848 10975.476095 6088.941640 3232.949582 13648.990214 15147.514876 17006.325110 16262.054575 14399.959468 7865.726104 8924.156460 9697.430293 8066.148520 10430.875271 9235.040934 10609.343193 6109.345126 13537.594415 16846.662675 17988.149919 13721.770286 8174.655463 14036.543782 12058.637591 6064.752100 13389.549277 5351.009452 9235.185390 4385.752732 4118.553950 13399.185042 12888.785456 10681.123997 7756.281421 15929.720147 16026.034317 10524.677055 9261.765895 10180.270221 4124.975389 11089.942885 2793.236741 6056.063524 13256.467138 14267.272494 16813.766369 11369.590128 11325.108253 11922.514682 11740.840174 11166.549972 7830.385081 12807.841481 4000.947872 5577.579032 5153.400267 13276.939064 12709.178983 11810.103233 8901.547170 13526.495916 12274.993677 9851.097534 9490.402884 11919.640529 2926.047056 9157.096845 12554.398818 11297.045762 13116.373859 11025.789347 8202.869077 10488.905350 11777.830038 11594.897957 13186.321687 10714.178535 11655.697027 12703.785996 11999.458977 11478.499454 5467.073763 12706.725424 13975.448180 15633.499001 8747.230586 12424.292279 14572.435680 13894.764596 11569.243716 10726.250266 13266.191115 14900.095842 14836.941729 4839.894927 12408.478558 14023.952130 16912.513363 14567.536083 15044.984511 15092.494096 12228.024942 9650.488041 8735.187260 13630.809891 13268.638143 9916.379164 15241.551770 12390.536255 12417.646019 13454.376752 9911.987838 15893.635962 12569.303706 13511.743857 7944.572287 11298.946952 13378.269980 12447.985942 12005.749318 9773.674829
</DataArray>
<DataArray type="Float64" Name="Velocity" NumberOfComponents="3" format="ascii">