<VTKFile type="PolyData">
<PolyData>
<Piece NumberOfPoints="2177" NumberOfVerts="2177" NumberOfLines="0" NumberOfStrips="0" NumberOfPolys="0">
<PointData>
<DataArray type="Float64" Name="Pressure" format="ascii">
 13871.778403 13672.913607 13333.750936 12900.125495 12259.181711 11319.174847 10118.103454 8816.099071 7449.037010 6157.458162 4890.141775 3314.365228 1562.201295 -381.986632 -2348.302204 -3302.315563 -2841.963996 -1661.551800 -970.589646 -1183.422575 -1431.521223 -1364.328913 -1520.948432 -2248.533021 -3002.099138 -3323.551019 -3305.973776 -3123.607336 -2861.327574 -2564.810896 -2263.777384 -1971.799664 -1693.550798 -1431.742828 -1189.328859 -969.415645 -774.579868 -606.307217 -464.749534 -348.777618 -256.233064 -184.274193 -129.730759 -89.410592 -60.329084 -39.854607 -25.778012 -16.322463 -10.112466 -6.119897 -3.602338 -2.045766 -1.115597 -0.598944 -0.343914 -0.245753 13886.099333 13612.690061 13258.967113 12962.191967 12499.635154 11724.734708 10404.164781 9135.773813 7540.639290 5931.696630 4339.942733 2071.439629 674.426517 -1102.102840 -3974.619586 -4864.068000 -3509.337541 -1140.071238 -19.093942 -1516.957516 -1926.858966 -1193.680871 -846.832738 -2373.969664 -3564.652863 -3675.380967 -3484.856070 -3225.941906 -2918.458418 -2588.117481 -2272.002668 -1974.607674 -1694.634794 -1432.323200 -1189.789761 -969.865153 -775.035078 -606.756644 -465.175482 -349.164637 -256.570918 -184.558320 -129.961509 -89.591937 -60.467225 -39.956733 -25.851314 -16.373407 -10.146116 -6.138707 -3.602853 -2.017451 -1.053947 -0.548536 -0.317280 -0.232260 13929.701383 13525.985072 13048.444078 13372.112222 12323.567979 13037.660000 10100.740452 8044.960693 6796.441163 5314.988301 2922.721318 -2352.790128 224.695684 -674.746749 -7368.580187 -7178.285847 -4290.123414 671.572644 2349.482430 -2927.450162 -3344.271207 -595.162016 753.998439 -2911.060393 -4842.952060 -4188.735598 -3714.094578 -3380.187151 -3024.653951 -2619.019644 -2280.382157 -1976.923992 -1695.125224 -1432.225500 -1189.476543 -969.460784 -774.593664 -606.311437 -464.750826 -348.778015 -256.233186 -184.274230 -129.730769 -89.410592 -60.329073 -39.854563 -25.777843 -16.321830 -10.110112 -6.111162 -3.570585 -1.919426 -0.869928 -0.438334 -0.270943 -0.209612 -0.447880 -0.278257 -0.205692 -0.234081 -0.180963 -0.147361 -0.109957 -0.098374 -0.087385 -0.054378 -0.051526 -0.048243 -0.027019 -0.026362 -0.025374 -0.013343 -0.013216 -0.012903 -0.006506 -0.006496 -0.006389 -0.003122 -0.003131 -0.003091 -0.001472 -0.001480 -0.001464 -0.000682 -0.000686 -0.000679 -0.000310 -0.000312 -0.000309 -0.000138 -0.000139 -0.000138 -0.000060 -0.000061 -0.000060 -0.000026 -0.000026 -0.000026 -0.000011 -0.000011 -0.000011 -0.000005 -0.000005 -0.000005 -0.000002 -0.000002 -0.000002 -0.000001 -0.000001 -0.000001 -0.000000 -0.000000 -0.000000 -0.000000 -0.000000 -0.000000 -0.000000 -0.000000 -0.000000 -0.000000 -0.000000 -0.000000 -0.000000 -0.000000 -0.000000 -0.000000 -0.000000 -0.000000 -0.000000 -0.000000 -0.000000 -0.000000 -0.000000 -0.000000 -0.000000 -0.000000 -0.000000 -0.000000 -0.000000 -0.000000 -0.000000 -0.000000 -0.000000 -0.000000 -0.000000 -0.000000 -0.000000 -0.000000 -0.000000 -0.000000 -0.000000 -0.000000 -0.000000 -0.000000 -0.000000 -0.000000 -0.000000 -0.000000 -0.000000 -0.000000 -0.000000 -0.000000 -0.000000 -0.000000 -0.000000 -0.000000 -0.000000 -0.000000 -0.000000 -0.000000 -0.000000 -0.000000 -0.000000 -0.000000 -0.000000 -0.000000 -0.000000 -0.000000 -0.000000 -0.000000 -0.000000 -0.000000 -0.000000 -0.000000 -0.000000 -0.000000 -0.000000 -0.000000 -0.000000 -0.000000 -0.000000 -0.000000 -0.000000 -0.000000 -0.000000 -0.000000 -0.000000 -0.000000 -0.000000 -0.000000 -0.000000 -0.000000 -0.000000 -0.000000 -0.000000 -0.000000 -0.000000 -0.000000 -0.000000 -0.000000 -0.000000 -0.000000 -0.000000 -0.000000 -0.000000 -0.000000 -0.000000 -0.000000 -0.000000 -0.000000 -0.000000 -0.000000 -0.000000 -0.000000 -0.000000 -0.000000 -0.000000 -0.000000 -0.000000 -0.000000 -0.000000 -0.000000 -0.000000 -0.000000 -0.000000 -0.000000 -0.000000 -0.000000 -0.000000 -0.000000 -0.000000 -0.000000 -0.000000 -0.000000 -0.000000 -0.000000 -0.000000 -0.000000 -0.000000 -0.000000 -0.000000 -0.000000 -0.000000 -0.000000 -0.000000 -0.000000 -0.000000 -0.000000 -0.000000 -0.000000 -0.000000 -0.000000 -0.000000 -0.000000 -0.000000 -0.000000 -0.000000 -0.000000 -0.000000 -0.000000 -0.000000 -0.000000 -0.000000 -0.000000 -0.000000 -0.000000 -0.000000 -0.000000 -0.000000 -0.000000 -0.000000 -0.000000 -0.000000 -0.000000 -0.000000 -0.000000 -0.000000 -0.000000 -0.000000 -0.000000 -0.000000 -0.000000 -0.000000 -0.000000 -0.000000 -0.000000 -0.000000 -0.000000 -0.000000 0.000000 0.000000 0.000000 0.000000 0.000000 0.000000 0.000000 0.000000 0.000000 0.000000 0.000000 0.000000 0.000003 0.000003 0.000003 0.000020 0.000020 0.000019 0.000126 0.000128 0.000122 0.000716 0.000726 0.000694 0.003678 0.003715 0.003557 0.016985 0.017089 0.016365 0.070316 0.070424 0.067453 0.260237 0.259283 0.248353 0.858316 0.850164 0.814116 2.513610 2.473744 2.367475 6.506457 6.360579 6.082872 14.790001 14.375037 13.747429 29.185189 28.346383 27.204428 48.766998 48.307385 47.090427 61.974514 69.978153 70.304563 61.959525 80.790104 81.697811 16045.974753 15516.968823 15342.706348 12770.539033 11453.275382 14524.831311 16801.974204 11864.950471 10699.895346 14559.620017 4302.613012 5025.300772 4662.952498 7195.126302 7994.156454 15575.157362 31715.722657 -19574.694675 -21480.835804 -15241.818672 -11209.584837 -8382.594999 -7085.971841 -6562.225113 -6227.042142 -5960.540620 -5850.002939 -5903.904360 -6001.493734 -5984.597238 -5757.858469 -5326.399766 -4762.258330 -4140.711002 -3501.229239 -2855.303165 -2218.085951 -1465.059602 4905.036963 5780.007089 -3901.280495 -3020.255533 -2421.048924 -1791.991858 -1421.343850 -1298.706487 -1347.642988 -1413.020067 -1322.000947 -1021.379943 -606.446824 -216.533632 16.792581 73.994851 81.952829 81.158389 15658.979841 15534.363575 19441.423084 21099.196565 15184.712468 12291.806549 12620.787399 10604.190706 13445.000909 15715.819259 8784.578732 8508.315474 10311.674134 10684.025284 11801.412657 9741.606013 13349.893984 6344.743001 852.074402 -2723.878594 -3185.175188 -3217.225597 -3618.406148 -4127.864481 -4476.214475 -4684.954029 -4902.230014 -5178.479473 -5430.459993 -5529.461313 -5397.809328 -5047.601120 -4551.921348 -3986.047039 -3390.630261 -2779.155245 -2168.560703 -1590.595412 -910.880338 213.611868 1134.885121 754.910539 114.954283 -189.538470 -373.839047 -557.340720 -768.973225 -938.162243 -947.660848 -757.566118 -448.589881 -154.035802 27.586795 85.260116 91.347796 87.468731 15607.887696 14513.776038 13687.622705 13870.459216 13679.333521 14080.935906 14641.392370 13724.375909 13148.919443 12963.836535 11406.438230 10703.473932 11097.039369 11388.411887 11346.070695 10641.139217 10233.507452 9777.139555 7760.595073 5196.035548 2977.998299 1098.531055 -572.726809 -1917.807001 -2839.506558 -3461.959655 -3977.101276 -4464.745471 -4869.130198 -5083.785342 -5045.237017 -4772.846471 -4342.787780 -3831.515580 -3280.206196 -2702.893800 -2117.549088 -1563.681851 -1077.118368 -619.298204 -146.566237 216.206458 386.159083 353.034388 205.027147 -9.843729 -270.429919 -500.525976 -593.102301 -502.361301 -290.255314 -74.740988 59.415658 104.030684 102.352903 93.315133 14027.618880 13425.767490 13295.611553 14620.606617 12086.231074 13354.022943 9104.332270 8272.388806 4710.884016 5368.072881 4828.014541 -2712.476566 1333.684367 -531.658699 -10121.396120 -8391.932237 -4526.362618 1511.911464 3075.729090 -3787.563031 -4052.432097 -391.060649 1195.602882 -3230.885186 -5372.315993 -4372.284214 -3782.558392 -3444.287131 14514.262357 14429.428657 15435.024658 15575.522883 12075.391533 13848.766456 11982.488329 14953.186365 16322.541642 15495.157193 17698.062924 10460.391377 16650.078370 3686.343099 14669.065369 15205.845830 11824.918599 13208.057779 14212.159099 17005.325303 15502.603807 7606.148964 14416.091754 13145.762794 15200.449190 13093.103781 989.722145 -1130.871596 15244.203610 15398.868047 15733.304186 12421.174934 14278.232477 15922.744916 12557.958100 7353.658317 8235.822849 16195.855588 6388.740370 16824.575935 10997.551098 16378.030086 15578.453517 15036.296371 8422.516475 13595.416436 12767.868576 14135.696670 12799.237556 14805.928873 12043.949088 15418.733620 12115.359874 9873.553629 3927.539429 11412.251170 15792.824139 15843.100214 17234.939674 8677.530597 14134.872412 11581.262250 11175.964219 12667.750004 10823.663145 8360.849619 3916.299989 4041.168026 9917.908224 2947.842243 8602.487390 524.535813 7779.822612 13170.938402 9621.789015 7528.939913 12190.334022 7170.339813 7377.736623 15195.663300 4769.999971 5889.418403 12523.139049 1690.756828 16194.623689 14748.126566 13549.644245 16147.500392 13253.651783 10092.243850 13537.478039 8067.009670 17821.098400 5537.295501 14027.394592 6643.394260 7627.839531 8331.010922 1920.064957 11421.294712 15067.357666 9445.513707 9643.092163 1896.883706 -525.500473 9976.194190 12290.660028 1062.976971 1219.037689 7371.039936 7378.590643 5050.433668 17038.985787 17749.349109 20368.488863 12890.258932 15826.174904 12494.779296 15156.379055 11659.597291 14356.886934 9757.831803 7157.126433 11025.153233 14477.127797 10654.312221 11722.825751 14001.492363 4123.505769 11703.796318 10173.022992 9605.246304 5531.652278 13224.240864 7125.172162 5679.793555 4756.815853 3988.772976 3555.950670 1667.416219 17628.891776 19357.445263 18949.588381 14253.262357 14231.252873 16858.163955 11780.166851 5302.003649 8632.178360 11256.956800 14306.056377 13558.206187 15102.170172 10620.466217 14185.841202 8824.620546 9218.280076 10749.970283 5343.411334 10243.690716 2620.280609 8983.849354 9200.756905 6458.125898 4066.033867 3617.392944 40.056121 2512.186477 17700.710444 17434.161345 16338.375435 16906.086516 14213.342159 14546.005972 13012.377362 13099.919831 9423.811250 14804.013222 9883.007496 12094.353721 9620.282129 14473.992712 12607.607007 11054.835100 7605.666333 9053.023924 6261.163293 5116.376425 5578.021134 7293.251749 3164.611233 3597.778385 6622.528787 396.776733 743.350395 2059.254995 17794.506629 17958.913707 18405.081419 17440.979646 14134.818172 15700.999721 15813.077038 15918.158494 12051.027911 7728.577983 9365.516670 14393.368642 12618.562350 14064.282046 4563.537481 3362.524942 8126.007505 5177.397944 11085.718266 6617.294747 12742.933174 5190.709423 5708.062077 5551.613899 3477.825539 3438.695987 6701.806571 2136.409785 18185.780081 18258.163118 15666.838345 19254.437798 14963.146190 13354.169264 14220.201862 12054.334434 9849.935994 11889.632475 9934.774380 9215.062628 9342.703142 6062.371663 8068.680233 4023.985798 6232.684819 7242.677087 5800.108631 4142.835337 6092.240547 3672.966830 5977.844023 621.653103 7271.072739 3889.291592 2768.169189 2693.672177 18814.549920 18282.904079 18777.377703 16407.198215 15057.026263 14125.866472 13364.226001 13876.780613 9004.318783 13873.320592 9384.568273 9564.342601 3970.350864 6587.771995 12038.130393 8255.839803 2731.862990 8293.257569 11951.799852 3701.225976 5510.776456 278.988343 5925.553127 8015.249012 10952.274232 1131.023144 894.557996 -60.759927 19241.572836 18408.579832 14098.079295 17575.689943 9839.846614 14090.110342 14272.485340 14192.765671 8467.176542 13773.683308 8129.560244 6078.109347 12582.591772 8793.267871 2919.022175 13894.733811 13938.778912 12199.734587 1085.171894 998.079503 4383.393495 4664.746132 5868.592326 10116.629247 3462.141333 5017.978781 2103.792706 1524.459768 19328.242271 19542.207506 18035.182356 16707.167325 15717.915430 14639.498827 14780.688036 11003.473894 11522.185971 10861.498008 8376.912965 7984.274701 10947.837460 6237.507806 6742.860936 4384.869330 2259.890982 1192.128126 4276.836538 5648.351527 2469.078965 4444.093914 4318.709083 4825.520723 10347.481183 8091.713694 1566.017843 5628.110519 19167.609294 18934.938694 17248.961774 15252.164195 14919.165936 12645.399468 15154.776769 15027.322887 13065.162237 11409.015070 12293.273745 3388.790842 5448.532386 3514.778999 2973.376748 747.330238 6170.234258 1075.436971 7591.628052 6171.541036 6429.432871 2939.800626 11500.449300 5157.750262 655.609414 6199.635442 1220.593780 896.989451 18871.027008 19405.320397 19447.807425 15022.439193 14094.683254 17729.860455 11559.830728 13931.145769 6049.638973 7235.507206 14249.066990 4499.116513 2797.083285 489.396178 905.365195 1498.562732 -3745.220671 1771.169584 394.121877 1151.877637 985.876029 1976.554993 2259.385940 637.343159 751.305125 639.041100 3215.004305 1291.593060 18281.693683 17546.721516 16716.337155 15392.150473 19249.668309 16149.222181 9397.734299 9991.434822 9621.487917 5100.915253 4205.467776 1233.727460 12310.768930 17974.021994 15432.016539 13597.836266 17539.345000 14912.458657 10282.086079 15922.779704 9415.464286 5959.788136 8648.978658 1155.830627 2175.592636 2163.316676 18210.546289 17319.696408 17667.607385 14424.450788 12245.428692 15728.680278 9077.415823 7766.577264 5850.380068 2076.656695 3548.338725 1993.942899 578.326478 18329.123646 19253.665547 19764.678938 14692.067428 14252.257634 11459.349478 10594.294347 5778.451095 5306.963118 1343.977394 7767.705855 3621.550822 1427.604423 18183.040629 17385.936473 16955.373476 16620.393638 8643.364418 7283.520283 5767.376001 10313.761031 4889.239885 656.703799 1364.332839 885.251614 990.587322 17990.397564 17578.992199 18256.097194 14247.497354 11501.542919 10683.093863 14994.304808 4040.935994 2665.803688 1575.661800 1465.997481 3524.725369 2189.748852 17628.394916 16836.691781 16376.697396 16892.221221 14363.122413 11301.103294 8856.828595 8699.882787 887.785455 4654.444166 7696.034974 3882.506193 2638.169562 17593.975582 16733.757247 17336.111486 15150.788255 15551.766644 8514.183384 11957.085377 1237.297580 4795.099597 1399.648557 2527.497840 938.142109 336.703184 17642.390647 16991.781920 16298.286551 17360.067153 12812.804521 13552.808796 10796.484469 3738.712974 10156.032676 3937.417704 1121.280319 1751.482188 2967.674808 17465.309314 17367.007712 16890.221175 15467.386832 14402.766635 11415.937041 9138.177221 11757.587595 5295.135040 4218.573556 6015.480791 5250.079888 5213.921445 17351.697292 18066.313475 18635.913741 14472.604879 16422.117037 13420.882268 16282.674463 3347.860458 3331.914580 4056.496811 6114.147585 -1378.946635 1842.225154 17360.612763 17720.998797 18068.527537 15280.877551 10572.217561 10121.340545 7473.234815 4935.350977 8999.673698 7268.745378 1781.499807 6261.211406 1995.440968 17387.727742 16199.160831 14751.575275 17668.054838 15890.338225 14938.734417 12262.721293 8707.494830 7657.139802 597.417728 4793.822756 4447.463510 1707.360357 17727.010097 18296.167339 18889.511959 11681.246836 9205.946084 10181.395157 7373.901718 2415.391194 4076.660690 9344.442550 8186.637317 4292.196267 1910.216248 17880.369502 18546.392194 18483.602214 17548.088855 14009.163554 13118.440274 6483.012156 13639.366946 4691.366560 8262.896401 4781.923636 11434.471814 729.494456 17640.578565 17082.490240 16453.591937 12986.392879 13271.321085 14119.286511 11201.632918 9604.532172 6203.102378 3174.191912 3403.530327 2893.132230 1468.180874 17569.091015 17687.915689 17586.658998 13182.604327 10408.090057 9186.380900 12716.716103 10795.328852 7407.911862 5617.314031 5266.897314 1678.756452 533.387928 17446.472460 16563.800877 15966.296449 19651.640357 14556.162546 15445.042291 7429.957281 11878.269875 11880.734386 9325.175742 9982.698361 182.607367 2677.011659 17338.973014 17692.488884 19399.528843 14240.713182 14498.190975 14242.034959 14502.607892 13565.830951 6400.307467 4202.030569 9496.483581 2199.244646 819.435686 17241.009999 17193.134959 17573.188696 15668.916259 13958.999523 12402.230720 7845.368857 7490.801556 4505.711351 10036.350715 9561.568296 3887.427759 1337.945113 17125.195301 16164.578225 16625.074949 15999.001672 14383.464111 11685.357956 15608.661519 12372.900167 14577.583356 7708.324374 7067.586534 2908.958227 880.705476 17090.368181 15584.725158 17101.740957 17850.222246 18578.687382 15999.786373 12444.915967 13405.995352 10056.318203 10150.388502 5327.951916 7598.505519 2651.773804 17021.159225 15230.568416 14946.189460 17376.326053 18651.662659 10923.026632 16684.557824 10630.523884 6954.267507 9948.329262 3312.504045 2324.086690 1457.123254 17183.337858 17349.130995 18143.988568 15910.029481 16114.830364 15151.138736 14811.168992 15368.152037 16518.737846 10539.857762 8291.790544 4403.788607 1121.045771 17264.358661 16898.993343 17322.790717 17341.924138 17934.725411 18029.617823 16465.129189 16176.317176 15474.627915 6864.144705 7067.796660 3974.402340 2426.271713 17209.941126 15740.909223 15492.334579 18669.819664 18126.104408 14782.433814 17681.704198 15024.381570 11090.090059 2834.950806 4141.666956 4768.862056 3255.313926 17335.919317 17993.432563 19366.868664 16939.249871 16952.198037 15516.167666 11772.324471 7481.387244 9472.545747 6062.764539 2774.710181 2863.461206 10062.851128 17553.748537 17892.460098 17585.644819 17162.942898 15670.901361 14825.680603 11769.682391 10086.104378 10137.476139 9015.136541 4217.660588 7327.241174 1250.542377 17834.115236 17227.122741 17243.634789 16331.319298 19955.619469 16631.079242 14024.670301 12837.473334 10915.691809 5006.821804 4385.437170 3385.000140 1640.956564 17975.038711 16860.707876 16961.305772 18024.908349 16374.336088 17555.608688 13145.743071 16405.720100 12685.039573 7660.005527 3697.198430 2726.516853 1735.048331 18144.888291 17479.690097 18115.785794 18760.984203 17806.011171 14803.346684 15472.536983 10110.852762 5958.935425 5549.947419 3715.185324 912.983548 4077.115342 18408.238105 18329.885004 21041.756701 19340.552780 20321.402069 17525.677140 8762.581715 10531.366903 5054.789729 6932.421400 5931.511821 3659.469998 5285.137307 18682.806389 18371.628621 18966.648320 17062.311312 15130.090358 12916.628566 7285.578621 9084.189211 7184.164028 9855.409975 13196.903493 6671.120813 -679.778707 18556.452764 15609.596516 13539.548604 21279.257221 15885.371601 15491.468633 12042.376414 11211.882289 9726.643543 11098.696512 4815.900086 7802.483877 -106.272127 18395.250521 15795.680057 14733.959144 18867.824609 18433.082635 19838.325188 11643.786698 12207.336113 8033.203749 2836.819818 7874.201182 3475.856072 1401.317727 19148.412867 19882.310853 20026.194764 17762.238137 17135.387349 11865.586791 13994.863108 14810.154332 6104.958399 12184.076953 9365.588645 1850.677497 -3465.499455 19845.252993 19763.001843 16982.361961 21787.775355 17752.245227 13599.098529 10758.368074 9631.976522 6053.394720 9566.552233 9656.993673 3662.440295 1371.252428 20235.304476 19092.510299 17399.516353 17696.979086 17211.765489 13440.775074 13428.325989 7121.452374 11375.296026 14651.891012 2690.035998 3291.401585 2305.220213 20585.394792 19654.798590 18063.339597 17614.792369 18032.979964 14171.841105 15581.586318 15559.819262 15888.343397 9484.343273 5627.697624 5262.829904 2360.519548 20988.714032 19266.568078 16606.492707 17909.924582 17485.298344 17793.194505 15682.463328 14697.551696 9806.850087 9112.366872 9347.268316 6658.929855 10063.780042 21022.085975 20867.249664 19950.208452 15834.327814 14985.380863 17168.183114 15481.694831 11681.517382 14702.922763 9394.249531 4829.024366 2928.426833 3469.514342 20365.973649 17233.766843 14111.513929 20427.481231 20968.993917 14317.382170 14177.914788 12384.367437 12207.947784 11300.825175 7145.203364 2472.351747 3545.959370 20394.471428 22354.817074 22657.253216 18535.890984 19256.279388 17057.109620 17392.202110 13729.554214 13492.442496 5020.333023 8635.960884 5068.080759 2283.296588 21246.373062 22272.311808 23970.017434 19696.002466 18176.980977 13275.214800 15368.551959 15803.633859 11485.448886 3994.135521 7274.971530 2547.791031 1922.698624 21539.345053 20847.611378 22236.056941 18283.645824 21470.070582 17066.566435 17152.644647 19229.233020 15330.820569 4159.195185 4243.084096 4736.589378 -123.372979 21816.139095 22612.215173 22299.804654 20306.861032 17364.934561 14864.584978 17897.616554 12952.069523 2655.029167 8362.517446 6654.691221 2793.190149 8694.851073 22113.317305 23432.682917 23996.994621 18965.332280 21717.053550 18518.747511 12758.746343 3220.557472 2822.018337 7623.587396 5942.427571 318.605241 905.743650 22261.472644 20416.928673 18981.235957 20465.889430 15292.031883 20860.850659 11237.692844 8304.110228 4709.558891 8459.263669 7853.813154 5616.745235 8415.535602 22801.806163 22220.524580 20880.347620 22429.206880 21576.352920 18027.912504 6781.663980 10447.438124 10421.406637 8844.877585 6417.490319 3817.666821 5100.425734 23348.468505 22126.933105 20141.335757 21289.560357 19712.637327 17161.101771 9453.067561 11487.296299 11514.812606 8989.089394 9998.962506 2388.598372 1428.714941 23324.405213 23073.138743 21609.512917 20711.499811 16819.127887 21155.482089 10887.389665 11214.436583 12279.297232 2255.863227 7336.801920 4984.911663 -2107.352979 23682.443014 23784.856324 21321.818996 19949.634966 20373.904895 18879.887847 13629.941809 11700.195280 11316.354092 9462.954076 7053.002105 3298.693423 7394.828331 24359.643544 23613.603677 21925.195090 20147.831399 20740.866102 11196.729018 19881.771081 14466.454138 7790.304493 13912.943770 9895.364747 -1568.795619 15525.708882 24858.322665 23813.821535 18969.424549 22229.612956 18512.471021 20644.417597 12594.529861 18793.929126 14262.026388 5290.039820 10763.436444 5115.141255 -5386.479647 24796.904819 23425.163563 22255.566075 21228.576703 21981.082304 15558.780715 15377.154110 12516.388818 13234.403379 13840.376208 4176.906146 2367.262377 13384.998112 24535.866885 22199.078101 19490.114277 21964.769545 20536.027371 18050.997506 19653.508686 14883.359497 12169.763130 10631.193695 3818.114449 1356.426429 208.374082 24669.889744 23877.407504 19888.216923 26322.329774 20069.436416 20001.334669 15194.760099 14775.223102 13633.618376 10499.171484 6453.609335 7647.331944 7202.318061 25036.491177 23886.286492 19950.927589 24454.560301 22440.490016 23740.961735 15472.326840 13487.951613 13705.845554 12595.407168 8445.557801 8568.388481 3537.866133 25088.420306 24233.732284 23353.207376 26835.535246 25073.703944 18523.023672 19160.104225 13766.679128 12592.283090 8230.015726 2451.889862 2894.905491 17007.264410 24998.421564 22500.765966 20803.624199 22066.978764 22127.265949 18879.332245 17468.871281 13513.856241 9686.030083 12395.016545 6926.924447 7176.974652 -774.751407 24998.038651 23778.034469 22526.656538 25606.607377 20348.996619 17448.267977 12806.204409 16827.893585 11461.061418 14581.141249 3130.565488 9735.375406 15936.685957 25350.697372 24517.344485 22411.814113 26480.934226 26805.784008 17719.598440 16226.867659 15527.786617 15364.194147 12052.377112 10235.839067 10718.380165 4945.507461 25899.413745 26168.989251 28800.388571 31804.538328 17550.064473 21128.918313 13351.265089 17486.424538 12310.358356 13783.722366 3211.281036 7609.138175 5648.629214 26417.954124 25197.661670 24052.122995 23428.805889 25186.344600 19751.066863 20070.891728 12922.217981 15162.367008 7749.741994 4324.081448 6466.325423 12000.636654 26673.251574 24626.678364 26629.915125 26341.059864 22146.985871 17849.410850 19328.710565 15474.515187 11566.665383 9395.907694 9516.453715 5623.016241 14192.439530 26831.810937 23602.664746 26372.480815 23126.346758 20265.226437 20921.188563 17256.645790 14695.340009 15240.487811 9842.798722 5958.856741 2242.033137 5473.382451 27037.337403 24038.278362 23078.957987 24466.922051 25157.697523 22137.739723 17327.604278 16113.839155 13393.672499 11179.211533 7188.566077 5332.581891 643.122076 27680.535908 26739.129952 24851.038543 25481.697024 24714.904572 23987.490035 18616.434646 13103.417714 16389.303935 15448.966311 7739.204190 3898.101315 -2916.361526 28096.295546 26350.637037 25026.077273 25053.660660 22705.064291 17908.592783 17248.090592 14459.553223 16083.966022 8202.784808 5558.033601 9187.768424 29164.163118 28306.226077 27972.341167 30091.942550 26086.991564 23462.984322 19983.956463 18889.045972 15524.881558 18778.536032 12339.022486 8537.172386 7385.524649 11873.422632 28245.807467 26452.824437 26961.433646 22087.654870 22314.100043 17523.493034 20408.559631 21138.969219 15030.253623 14455.108921 4155.490033 19152.052482 31098.531376 28068.335134 26334.345113 25811.350047 24432.329369 19632.927697 17178.218954 17160.298826 23933.859905 18990.828480 17643.602778 12538.336147 8895.862356 10302.503650 28346.808357 28213.854825 29187.632935 24059.538167 20913.004855 22812.522010 21701.454397 18305.244645 19386.370353 12792.848916 13778.965549 12222.294999 15734.330482 28433.899290 26064.423772 24994.636790 22465.477407 21783.450241 19747.462386 19327.379165 21865.880812 14130.641290 15736.035321 8406.497171 8912.945941 10111.148584 28381.055154 26111.500266 25247.053656 16838.668595 23186.801249 26519.429565 20663.062905 15514.936643 17138.344407 14892.362857 9488.493689 9832.199586 7106.962931 28383.077602 27380.468816 25167.234354 16478.518516 19217.233472 25326.086009 18988.853243 16347.581377 15235.344853 19752.861132 19313.438053 10806.399230 11274.273302 28587.246101 30335.241589 32217.757055 20480.525445 25270.449080 18009.409599 25178.386772 13533.774277 14708.718843 15553.383704 13487.909717 12579.562761 16366.920288 27929.281561 25323.713197 18609.783947 22478.608063 18482.775845 15338.416127 19007.653085 22923.159392 19522.107881 18806.677167 13401.258256 11931.064341 5214.134116 25835.383821 23560.461980 20027.647863 21945.979437 17073.746185 21452.434501 20634.885968 19127.507780 14024.407125 14264.043013 13819.979598 14033.082168 3765.956686 23222.926788 25642.358472 29216.588309 22229.627984 25127.558208 22015.809126 18682.215794 13195.983213 15884.031728 10112.295702 17132.427357 10940.255474 7833.681130 21618.502571 21557.643836 20301.933406 23264.856960 15628.428333 25967.184037 18136.243522 20950.547045 17892.670491 23190.082081 14338.018403 18480.471809 8092.271471 20835.665618 17815.684321 15181.077394 24032.633949 21817.451983 22110.251081 22573.465492 16892.655490 17527.473241 7164.172239 15846.797004 20779.458792 8912.949502 20065.800251 21281.837766 23603.806289 16973.168236 6666.575679 20360.939372 12459.159127 7678.171352 12040.787248 18698.175268 17486.770487 21996.829564 1434.337283 18981.989778 18542.071415 14714.181807 26607.324573 11165.158356 19862.560319 9453.985488 20037.872839 14387.220039 21160.937639 11414.101128 6579.234793 15685.657917 17128.455772 15704.486958 12837.661312 19756.711202 16057.753587 14308.296108 14240.406877 20751.452690 19667.334702 17628.835730 2775.687178 9928.504682 11980.191975 16045.974753 15516.968823 15342.706348 19459.775964 19309.017063 14948.977860 16747.617275 16451.584957 9218.232110 14979.420802 8524.994578 13916.301249 16144.599204
</DataArray>
<DataArray type="Float64" Name="Velocity" NumberOfComponents="3" format="ascii">