<VTKFile type="PolyData">
<PolyData>
<Piece NumberOfPoints="2177" NumberOfVerts="2177" NumberOfLines="0" NumberOfStrips="0" NumberOfPolys="0">
<PointData>
<DataArray type="Float64" Name="Pressure" format="ascii">
 20452.912186 20325.800535 20016.666223 19514.938835 18868.509555 18084.129459 17125.565642 16125.050041 15142.100749 14061.272693 12772.155791 11320.786794 9781.840459 8323.370576 7066.636494 5925.546418 4652.138994 2913.808165 1069.099621 -372.835520 -1272.751148 -1752.397994 -1979.443688 -2099.948576 -2210.351406 -2348.374111 -2507.156274 -2660.042178 -2779.800685 -2845.048765 -2844.958335 -2782.867723 -2671.643016 -2526.948917 -2362.969235 -2190.657501 -2017.602326 -1848.637819 -1686.625630 -1533.126364 -1388.879820 -1254.115416 -1128.744357 -1012.479527 -904.913486 -805.571826 -713.951699 -629.553897 -551.923406 -480.737818 -416.053111 -358.868497 -311.790050 -277.887593 -257.607951 -248.917944 20758.481162 20518.666507 19897.963019 19104.531575 18589.373149 17974.554880 16733.916623 15587.327287 14515.166017 12990.267405 11526.304593 10428.868844 8892.617933 7137.034442 5708.039452 4640.135132 3236.432457 392.770800 -1815.527757 -2675.711386 -2839.122783 -2737.673810 -2566.226591 -2431.579311 -2386.802616 -2434.065541 -2540.580634 -2663.688123 -2773.667132 -2840.565686 -2842.514384 -2781.555833 -2670.938010 -2526.600113 -2362.839361 -2190.661404 -2017.685141 -1848.764815 -1686.775452 -1533.286084 -1389.041580 -1254.274361 -1128.897448 -1012.624788 -905.049301 -805.695630 -714.056363 -629.616465 -551.869399 -480.332869 -414.599404 -354.981544 -304.304832 -270.038934 -251.384893 -244.045840 21218.976525 20580.028885 18294.920903 15993.835541 17856.799670 17996.599648 15028.100579 13867.637521 13973.094686 10262.916553 9007.038017 10254.523132 7820.412284 5757.242178 1717.263127 3038.915625 2517.726015 -5326.328197 -6124.184613 -5664.178707 -4693.218279 -3864.343770 -3228.870580 -2804.645729 -2585.239422 -2530.384248 -2576.485684 -2658.821525 -2757.206076 -2836.435285 -2841.987858 -2781.840169 -2671.292890 -2526.831695 -2362.930886 -2190.645331 -2017.598619 -1848.636750 -1686.625343 -1533.126288 -1388.879783 -1254.115336 -1128.744101 -1012.478686 -904.910729 -805.562791 -713.922105 -629.456979 -551.606113 -479.697753 -412.675719 -347.217339 -286.647970 -254.834892 -240.718847 -235.914114 -250.951758 -236.351961 -230.283990 -217.543690 -212.322252 -209.323052 -184.883462 -183.628065 -182.453907 -158.346789 -158.009848 -157.599083 -135.492776 -135.422526 -135.264096 -115.620396 -115.626242 -115.550396 -98.325858 -98.351915 -98.304434 -83.312120 -83.341675 -83.305563 -70.325460 -70.353619 -70.323453 -59.137239 -59.162705 -59.136625 -49.538429 -49.561000 -49.538241 -41.337857 -41.357663 -41.337800 -34.361432 -34.378695 -34.361415 -28.451523 -28.466487 -28.451517 -23.466279 -23.479185 -23.466277 -19.278839 -19.289916 -19.278838 -15.776436 -15.785898 -15.776436 -12.859430 -12.867473 -12.859430 -10.440295 -10.447100 -10.440295 -8.442586 -8.448317 -8.442586 -6.799917 -6.804719 -6.799917 -5.454950 -5.458956 -5.454950 -4.358439 -4.361765 -4.358439 -3.468314 -3.471063 -3.468314 -2.748829 -2.751090 -2.748829 -2.169769 -2.171620 -2.169769 -1.705732 -1.707240 -1.705732 -1.335473 -1.336696 -1.335473 -1.041314 -1.042302 -1.041314 -0.808624 -0.809418 -0.808624 -0.625354 -0.625989 -0.625354 -0.481633 -0.482139 -0.481633 -0.369414 -0.369815 -0.369414 -0.282173 -0.282488 -0.282173 -0.214643 -0.214891 -0.214643 -0.162601 -0.162795 -0.162601 -0.122670 -0.122821 -0.122670 -0.092169 -0.092285 -0.092169 -0.068979 -0.069069 -0.068979 -0.051437 -0.051506 -0.051437 -0.038244 -0.038297 -0.038244 -0.028394 -0.028435 -0.028394 -0.021119 -0.021151 -0.021119 -0.015839 -0.015864 -0.015839 -0.012129 -0.012149 -0.012129 -0.009693 -0.009710 -0.009693 -0.008346 -0.008362 -0.008346 -0.008002 -0.008018 -0.008002 -0.008672 -0.008690 -0.008672 -0.010466 -0.010487 -0.010466 -0.013603 -0.013630 -0.013603 -0.018431 -0.018465 -0.018431 -0.025447 -0.025493 -0.025447 -0.035340 -0.035401 -0.035340 -0.049032 -0.049112 -0.049032 -0.067738 -0.067843 -0.067738 -0.093040 -0.093178 -0.093040 -0.126975 -0.127155 -0.126975 -0.172148 -0.172380 -0.172148 -0.231857 -0.232156 -0.231857 -0.310258 -0.310641 -0.310258 -0.412543 -0.413030 -0.412543 -0.545162 -0.545776 -0.545162 -0.716068 -0.716840 -0.716068 -0.935016 -0.935979 -0.935016 -1.213884 -1.215079 -1.213884 -1.567055 -1.568529 -1.567055 -2.011832 -2.013640 -2.011832 -2.568908 -2.571113 -2.568908 -3.262879 -3.265553 -3.262879 -4.122805 -4.126032 -4.122805 -5.182821 -5.186692 -5.182821 -6.482777 -6.487397 -6.482777 -8.068931 -8.074415 -8.068931 -9.994658 -10.001134 -9.994658 -12.321185 -12.328793 -12.321185 -15.118336 -15.127227 -15.118336 -18.465269 -18.475608 -18.465269 -22.451194 -22.463155 -22.451194 -27.176046 -27.189816 -27.176046 -32.751106 -32.766877 -32.751106 -39.299521 -39.317495 -39.299521 -46.956725 -46.977109 -46.956725 -55.870712 -55.893714 -55.870712 -66.202136 -66.227962 -66.202135 -78.124211 -78.153065 -78.124209 -91.822372 -91.854446 -91.822368 -107.493673 -107.529143 -107.493659 -125.345877 -125.384892 -125.345829 -145.596229 -145.638888 -145.596074 -168.469898 -168.516184 -168.469393 -194.198113 -194.247699 -194.196469 -223.016184 -223.067808 -223.010834 -255.162055 -255.211503 -255.144648 -290.877532 -290.911051 -290.820896 -330.419346 -330.391930 -330.235098 -374.104452 -373.866132 -373.505054 -422.466362 -421.504067 -420.518094 -477.027317 -473.318489 -470.663530 -539.360996 -525.498472 -519.271858 -573.211180 -550.469719 -540.390286 11553.500954 10886.193116 11845.358466 12234.812321 10363.589266 9765.188665 9835.654206 8873.562210 7340.268441 6661.796586 4593.349998 163.480171 -1160.937043 -1365.000399 -1265.919438 -1448.942461 -1720.914137 -1997.143299 -2248.826583 -2460.468642 -2623.588234 -2736.283052 -2802.249440 -2828.955608 -2825.628413 -2801.531481 -2764.734557 -2721.409902 -2675.600138 -2629.349740 -2583.071210 -2536.022441 -2486.795235 -2433.746476 -2375.334248 -2310.346379 -2238.026555 -2158.113750 -2070.815750 -1976.738520 -1876.791462 -1772.085310 -1663.835254 -1553.277582 -1441.603985 -1329.913973 -1219.181868 -1110.228276 -1003.668541 -899.749282 -797.863895 -692.851283 -600.968506 -561.926906 -545.096178 -538.832207 11791.316205 11398.955142 11641.997838 13413.986187 11884.818204 8336.782469 8072.674387 7514.161063 6283.920957 5332.185627 3613.330539 1401.622223 17.192414 -689.286450 -1072.026768 -1390.586383 -1701.398924 -1989.874759 -2245.719932 -2458.800235 -2622.453389 -2735.410157 -2801.571860 -2828.457101 -2825.293082 -2801.332863 -2764.638096 -2721.378789 -2675.600671 -2629.354875 -2583.062170 -2535.988712 -2486.733482 -2433.658882 -2375.226685 -2310.226697 -2237.903139 -2157.994441 -2070.707128 -1976.645526 -1876.717305 -1772.031593 -1663.802284 -1553.264873 -1441.611218 -1329.943351 -1219.245093 -1110.368815 -1004.034663 -900.845988 -801.364749 -706.797690 -625.796173 -578.764060 -555.837484 -547.100358 11930.712167 11627.707331 11118.922908 10994.074543 10393.518672 9353.271977 8641.671769 7542.689860 6294.809680 4965.871469 3423.823584 1824.785259 531.168452 -343.782984 -919.058110 -1338.390713 -1683.089729 -1983.683211 -2244.008472 -2458.768597 -2623.003096 -2736.086408 -2802.184484 -2828.934370 -2825.621509 -2801.529249 -2764.733840 -2721.409673 -2675.600067 -2629.349717 -2583.071204 -2536.022439 -2486.795234 -2433.746476 -2375.334248 -2310.346379 -2238.026556 -2158.113751 -2070.815754 -1976.738535 -1876.791510 -1772.085466 -1663.835764 -1553.279247 -1441.609421 -1329.931715 -1219.239774 -1110.417260 -1004.285096 -901.764222 -804.368750 -715.576905 -642.285769 -592.410654 -564.684397 -553.431273 21490.688513 20423.364492 16771.273267 13435.789555 17097.638847 16403.514917 12070.296305 11913.327693 14926.524075 10242.177064 10783.480199 12842.286776 8418.442827 6027.327860 -1492.542208 1551.933942 889.876613 -12276.710326 -8868.509445 -6638.112905 -5232.348601 -4178.850187 -3410.410444 -2905.295543 -2637.979321 -2555.659758 -2585.268562 -2652.588859 22249.687251 21301.499513 20000.549863 21472.091740 23448.355751 19687.046893 18778.580572 19367.645702 21771.273330 20931.496741 15883.379252 17536.200417 23310.025061 16044.222679 20266.897195 21803.058737 16289.567672 21173.242530 17439.546328 20571.341227 23550.317802 16394.263179 18610.963322 17038.701420 13903.058669 21081.541874 7344.178144 6972.189797 23437.362276 22343.154847 18542.192876 16246.606700 18017.375317 18072.330378 19588.893795 22378.129671 17803.534843 16451.291251 15157.615328 18243.736002 17477.129529 15913.977034 16864.915374 21937.833455 11361.290930 17046.891557 18818.817246 17459.266155 15155.144862 16581.959751 15788.524897 17873.634283 16948.769308 16234.579649 15323.141358 17016.305023 24268.958250 23362.331056 18127.743450 17887.058908 18872.807394 14990.508362 16462.326294 21678.773444 19934.781925 16237.935504 8995.737961 13893.728803 16707.980712 12684.716484 14089.829766 16771.947534 13371.297501 16726.832577 18142.876872 14123.873919 15238.148158 9523.137364 9140.571193 11406.351966 16445.496162 14580.528680 15956.429464 13871.979021 23871.025165 22461.333675 18164.712468 20972.084714 10925.719508 16206.687385 15708.606394 7575.755415 17543.768184 9035.334940 13136.503200 17162.067730 22172.755497 17892.405465 4370.287550 11703.498488 19326.634274 17881.250645 10841.611787 16549.197257 6706.729818 15113.577838 17093.518865 12349.286092 7309.960047 5931.286620 5532.892041 5836.237089 23459.400972 22803.074885 21713.217455 21065.264178 20638.287234 23608.863031 18000.666379 15449.787729 19346.421316 17615.541371 13439.349206 16347.855800 16384.380323 6854.774249 10708.026448 17376.030434 12597.335500 11134.121151 18861.698028 19855.639674 11153.270146 14839.206955 15045.827210 19327.874895 11871.075204 6424.473508 6507.485534 6395.734149 23380.964065 25831.515434 28179.160586 23533.120352 18488.178693 19916.463261 9301.013087 11771.907350 15949.487841 15136.696756 16059.722432 16356.005384 19381.930688 17390.388260 19495.982754 12464.510344 11456.090173 17713.370953 14190.268287 18159.831235 3779.640330 20043.010863 14410.958123 13186.676805 9208.489140 13461.293397 11584.321235 5273.393403 23140.061901 25526.638304 27882.936354 20314.553224 17759.063876 16440.389966 17383.602716 15728.276330 20256.649978 19945.000297 12146.774170 20333.643930 10823.493080 8246.120888 21810.723736 20292.988364 10044.126636 14214.434596 9445.276474 9350.438451 14886.102770 13248.373382 5596.557712 6031.021843 13206.176519 6312.533100 7647.712308 8809.886140 23070.555679 21024.547111 20652.213666 21501.102340 21831.420558 19525.038903 12932.823054 18327.392241 19718.104537 9508.772521 12996.425554 16173.622831 16665.214614 20279.816169 9968.468468 8292.143518 14403.751300 3728.101548 11996.492630 5067.804491 11804.075919 14090.278779 2937.539348 9431.032255 8731.317573 3371.958731 10157.446141 3373.787253 23409.524017 23064.971232 23425.837872 21021.316484 23395.008369 14300.075972 13710.997880 15013.506215 5567.344513 15652.858527 5215.840275 8522.276824 8812.672515 11392.493290 6993.696881 14165.095347 7639.910107 10802.562569 19090.713182 6895.854976 13907.029855 11475.935876 10469.445881 8250.969577 14967.875038 11913.643443 8137.401395 2521.202290 23278.323646 22786.925938 20018.085061 21756.531630 16782.047504 12471.369468 14338.502515 19747.936106 13390.879595 15495.026409 14872.822452 16725.910756 13413.217034 13183.243013 12833.774881 8030.348442 2310.036282 6215.849905 12694.576508 11595.202828 10222.705752 9639.982529 4132.403328 6456.229015 11581.552435 5018.893632 1455.358920 4992.924467 22886.410252 21747.382915 16637.696164 22167.900618 15594.355960 22640.252319 18342.904545 11319.393201 10211.111724 12701.820621 6716.488181 15011.508414 13040.832118 10730.842594 7953.733756 17915.310006 20366.089466 11432.859083 4280.051592 4969.283521 4868.212770 7484.162719 10855.175008 13092.852287 7217.565028 10894.537904 5100.864141 1283.891721 22646.868448 20298.227508 14449.454771 18845.795843 17073.558063 10799.276932 24030.839803 10457.542936 16363.012601 11508.540202 11435.374112 4927.190338 11887.745129 7075.752761 10167.527855 11378.402155 7649.963768 2851.625825 11234.940547 13979.069062 11905.333033 15968.652688 6948.209906 10225.436238 12119.380374 17922.584219 5639.312677 5939.470676 22465.783859 19574.234908 14798.170877 19083.329539 20667.326035 7647.055388 21285.532409 20131.839051 7057.879445 20396.396104 18259.290691 3075.910031 6995.260798 6434.446434 7894.864831 3526.346759 8474.653786 2878.142228 14874.951446 9758.689377 15415.766686 4196.823078 16648.604372 7502.194097 6020.471588 17998.198454 4939.075210 4017.290002 22436.567316 22399.815095 21471.915996 18542.786303 20846.111848 19607.981821 14103.365727 19119.367908 3670.044384 17712.174833 13872.807326 6554.659107 9770.467198 1987.482011 3403.316539 9833.135527 3747.016668 3492.274538 4355.330670 5772.428292 5665.923929 1860.068060 1465.421696 2192.133084 3308.333370 1264.774617 2746.941834 815.923195 22500.790224 23415.263685 26197.405227 21703.574424 17411.543271 19393.436840 13474.333185 17314.944351 8977.982481 8146.551357 12897.021960 9241.432991 3434.727718 22823.186704 21708.679149 19330.256404 19758.406595 22897.766875 19988.433300 17213.252251 12352.781411 16931.917387 11690.718731 5828.619760 5245.699110 1127.590167 23125.128899 21691.456606 17087.065884 14012.781909 20029.564450 15758.303668 14034.379901 11912.414589 7284.861338 10274.207213 5911.037283 5341.184821 577.806455 22912.890962 24365.147640 23173.125200 15761.346324 19663.467874 9502.067025 13011.595428 10985.549073 3878.926326 6437.986481 9476.616986 12737.860465 1564.512863 22253.104348 24572.597856 25152.403569 18502.286181 10585.493093 11988.177162 5512.446990 16103.004813 12559.714327 9913.888787 6746.926788 7107.300342 3346.529598 21662.302761 22856.177540 22706.302679 22184.997766 19933.656501 14103.821275 16102.177522 10993.303889 14038.731319 606.936273 9118.493353 1650.910978 2495.393115 21258.800664 21280.464107 21590.752176 18143.437108 23396.730186 15225.335274 14644.764762 10137.960398 5749.440503 15700.343888 4107.275242 10214.874442 3722.249819 21076.334662 22745.307239 26888.088120 22370.666534 20191.600822 19086.659430 13876.925747 8606.076868 8220.998948 7035.913644 2651.952398 4215.415687 3586.991069 21281.741764 21622.144491 24486.716244 19649.253117 22761.981277 18374.337732 13837.644600 10622.714146 16667.667799 5400.657831 10719.312296 5033.083815 5692.458728 21633.175848 22711.751345 24386.069461 10562.912821 19157.610234 16140.460199 11964.835760 15798.092977 13056.323400 7962.284830 11250.325584 8635.641365 5156.133884 21787.388690 23423.009252 24775.580306 19891.582310 17616.707370 18007.006043 18738.473148 3949.531784 3333.858359 11651.259367 11475.244004 13386.839513 4188.118414 21972.602697 22835.939970 21933.640429 18522.080404 15729.514962 17813.204561 10174.333144 12883.316798 11451.927395 13133.699759 8453.950248 7975.349286 1694.721051 22206.205992 23979.096056 23704.144200 21234.747087 17151.828689 19056.998018 15718.312728 14305.507215 14265.186775 7087.626439 17371.672287 4082.303260 2863.397453 22098.977768 23037.536940 23989.672997 19108.899941 12031.325620 16536.052567 8434.440755 5945.179259 11757.547010 13365.468119 9563.371366 4646.952363 3595.773199 21772.809709 21660.312800 23592.913538 11671.205948 20130.356583 19157.794517 9211.406273 18628.253239 9114.881271 9270.306004 7106.655479 8950.863947 4114.091424 21836.497611 21042.570716 22610.792269 18265.493785 14290.739518 17241.936399 16070.167780 14555.583161 14389.030242 5892.260633 5842.366110 11251.570507 3236.270943 21993.073623 22151.979372 23034.109801 13436.185039 13030.637812 10385.674925 6092.334363 17220.119444 8675.861203 13730.765615 8649.016583 6192.713940 3873.744762 21834.201853 21968.631095 22374.729869 22897.123411 17346.781845 16776.465713 10648.977950 16953.686711 15879.030457 10819.233206 11039.034660 4302.976095 5676.998082 21640.994964 22106.819560 21461.008628 18679.806564 13868.783098 16048.811911 14125.501304 10465.039887 9774.487142 10029.171240 10515.117137 11220.956450 3660.737223 21205.405018 22096.350145 22070.707683 16624.933070 20000.889606 17304.857481 9013.465540 14138.002516 8539.068055 19133.014475 6660.978062 3391.194445 3305.989678 20844.133318 20516.387830 20879.650727 23276.445093 19961.540405 12670.755846 11957.003227 9527.848525 14008.271305 4874.365575 6968.749478 5562.447863 3274.937021 20831.705032 20556.403247 22331.000660 23031.707907 18129.443628 20931.619610 16945.431856 18587.946863 5370.062059 12172.164703 7361.704653 5276.650951 4426.009280 20641.923441 21110.069978 23168.420233 22038.251074 16877.805796 17960.447821 17964.392219 11920.223082 10643.271901 9987.648059 6532.885117 4462.065469 4547.134792 20209.420106 20047.671922 21250.224787 17686.692550 20798.261470 17870.646090 13482.533969 16083.994378 16939.700388 15677.541959 7673.556661 4311.807455 4857.708766 20060.575078 20517.844416 21467.147494 16389.623528 18448.429509 16188.125008 10325.475487 14892.861258 15174.672900 6465.862435 4510.596379 8679.997769 7034.262893 20077.230036 20372.030893 22175.824433 20149.789986 17727.265563 7101.923105 17185.271192 16454.866308 14103.233912 4475.079854 7784.983993 5568.438485 9869.412858 20172.403874 19897.769023 19451.980052 13643.222561 18021.141510 18165.830300 9165.654760 9699.509400 10270.273672 4670.617336 5138.439903 4246.106877 6052.336774 20007.053007 22195.686073 23347.152898 13827.609467 10852.830059 6803.121192 9137.554839 8188.944074 7988.280747 7713.580454 6627.885558 7044.386053 3490.075790 19441.679385 20478.892093 21018.970798 16345.006891 18857.256057 16253.248734 6781.430575 14133.416043 9498.735989 7971.859915 9150.469339 3448.191356 4550.233837 18989.419679 20936.901157 23880.497986 19556.095007 17823.371201 17943.190286 17035.000639 14455.747086 15659.007889 10897.125276 7136.627783 7987.832716 5125.807001 18861.656245 21587.976165 22747.920555 19883.534183 16629.787787 16577.353768 12831.252519 9454.751564 7311.426838 3041.808937 4751.817033 4215.192068 5139.723008 18867.487987 21100.094880 21521.465228 19726.207476 17694.609869 14855.247500 16139.980792 8332.463019 6747.193894 9461.835187 4455.392807 6076.879761 3426.598312 18745.566208 20522.477117 20768.826678 14914.826863 15913.218320 13493.338558 5652.315187 4740.767094 6667.135750 5167.347085 7738.570518 8834.168723 5855.260903 18572.117723 19711.068900 19660.807649 17901.790524 17389.713472 15165.653596 12956.490238 12133.353497 10355.250206 10146.976542 6224.658862 5598.432098 5476.607646 18424.636273 18986.530649 19090.012423 17518.819446 16699.910044 20535.194983 12100.062660 14956.458468 4704.589314 4982.256198 4683.550374 4564.093980 4388.343201 18130.431395 18367.738385 19334.565571 16771.683956 9881.131030 17563.958389 18482.187682 9716.353433 8380.754565 7132.690884 7891.998717 3407.435445 4569.934089 17723.975107 17941.552121 18049.715478 17331.801334 19899.952271 19268.939110 7242.568649 5686.214915 4794.779966 8882.560522 4014.446346 3841.021284 5264.821334 17569.106402 17873.106973 17682.776225 18505.969509 15615.251552 12278.507380 15407.586090 6572.372323 4818.387323 9368.882348 7395.527112 7204.954360 3589.100919 17790.661296 18231.954730 16334.204267 16526.090777 15468.078791 14535.187879 13698.385782 14405.045332 15125.337137 5246.800282 6694.728166 8094.829626 2887.056344 18087.012586 18602.867818 17160.452946 17603.975141 17559.879022 17616.767324 15983.580968 11830.813866 4707.483936 9794.191930 4956.603491 10611.813783 2200.208581 18241.244495 18464.605998 19527.569469 15863.246744 14982.476642 15705.670657 13550.988481 8698.267894 7014.542158 11393.275579 5192.171192 7982.359082 1777.091097 18268.387392 18364.940483 18693.888481 20361.223435 16551.400639 13412.385745 14325.823978 6963.458177 10727.490902 8149.153558 6398.791061 5703.237611 3220.481625 18225.767107 18633.728963 18420.339477 15866.005021 16201.651528 15707.845070 13839.513850 13986.853348 10138.828746 7121.491076 6333.376253 10090.433706 2107.284795 18109.743006 18988.751786 19905.513518 17952.634421 11722.504994 7966.010108 13110.544702 10722.195264 8986.561168 6301.566060 9882.957210 4531.606743 2190.073431 17958.989405 18061.280951 17240.908492 17694.267876 16359.945984 16658.051833 6661.885711 13790.247118 11565.499151 2547.770415 4917.327296 8445.638200 3379.385591 17759.930060 17862.900184 17374.383670 11803.637878 14877.284320 15221.046250 10006.100039 6207.228219 7264.960682 8528.759086 8832.132518 6236.243513 4872.921246 17631.634078 17470.273761 16836.056447 13968.303233 13660.851140 15891.093620 12660.566780 9316.782167 7272.953421 6663.862934 5772.067844 2839.443476 6803.113228 17768.441246 18255.027246 19119.087674 14830.076354 12164.819942 13756.700747 7715.998982 7516.800404 7467.018626 8716.687549 5796.145410 9499.159330 -332.832341 17908.921742 18522.728710 17797.270767 20626.284887 14329.307735 14683.183285 8700.808663 7066.605487 3752.147367 7195.596697 4395.414158 6227.428630 682.845795 17876.816580 18638.272171 19140.371122 15064.827788 14438.881743 11112.988235 9162.579233 10202.869397 7927.356025 8595.822939 8147.299744 4175.352410 3085.206593 17764.144817 18185.684882 18837.839497 17314.945651 10715.862121 15761.894329 7659.233919 10108.360416 9418.607155 3930.670136 5426.581998 4254.752263 4433.144880 17711.531761 18260.286348 17546.849621 18211.884276 15774.763086 9335.047816 10756.655731 10362.176455 9397.905022 5854.504858 6674.829546 6259.569869 3140.996717 17440.078540 18272.607990 18508.480645 14780.757980 14489.241451 5656.080684 10187.570859 8497.724945 10518.042122 4269.962175 9638.524695 3288.519339 4619.292433 16938.727196 17443.527162 17542.173921 17485.545876 14412.699653 12410.136075 6242.078208 11323.065909 14054.870112 6244.846813 9561.294768 10319.750942 2434.756608 16539.016995 17750.772067 19470.450185 13862.560579 15719.592518 7923.894394 7887.772439 10085.326340 8818.994238 7574.528995 6344.556426 7625.381726 2644.155391 16286.928384 16931.413185 16636.457925 16638.779561 13301.027060 12066.684083 11475.731925 13040.622283 14465.211693 7982.272792 6634.221040 4113.422159 2210.333305 16144.994485 16651.639384 15988.662251 14302.422037 9283.240171 8353.960349 9631.966473 11006.658774 9960.481448 7597.533892 6458.383365 5127.175234 3743.314576 15995.988155 15834.617039 14781.812871 16160.192692 9235.112471 14385.450917 16807.499641 16218.114606 11246.579077 9784.473448 11479.821007 3129.536944 2828.351106 15764.650898 15643.233614 16868.577932 16004.577924 9692.338509 8318.636315 10924.175877 12014.855834 9240.363750 6142.202354 6686.192886 2691.857400 1163.359136 15566.467297 16612.410854 20916.468891 15281.899937 15996.786211 12040.225788 12404.495979 10117.472317 9978.781299 7059.670168 6090.549750 7595.023340 4095.510762 15612.260722 16737.280726 20355.730560 17323.533821 9319.620207 12528.100983 10891.862907 3751.763348 8727.956244 4451.251148 4273.310527 4956.592911 1699.421897 15770.745064 14976.153235 14096.452989 10450.797823 13297.542736 13121.481473 10237.872986 5609.276259 10160.884647 6378.377405 7665.709143 5681.028054 2060.799504 15722.767210 15135.668926 13170.673422 16068.981760 7327.307622 9759.579824 18102.464692 10606.186586 13478.830896 14203.678786 5512.215747 1531.019053 6528.625083 15499.756323 16019.924916 16283.876675 14466.621162 10473.083351 11542.591473 13747.808680 10813.335182 6032.726035 5500.349536 10466.900348 2699.845903 1518.421057 15287.482591 15822.583682 15271.778633 15757.988244 9066.872572 6434.563680 6621.606056 7612.026664 3615.377877 9753.352256 6473.918598 3639.054857 4026.486463 15063.696627 15155.008146 12414.737150 13736.435590 11369.679519 13354.636786 10953.363166 4525.412931 9996.667040 7425.357662 6433.947296 3511.979840 3497.301207 14840.735968 16009.098515 16414.726469 12933.149872 10713.499497 13342.834279 16806.084115 12553.901119 7205.692156 8228.880105 13023.777674 5208.617871 3260.659670 14681.411579 16368.490132 18088.064304 14200.677010 12994.124617 11506.583797 10901.974323 6634.176814 4723.457045 10266.446821 4837.509576 7188.064930 651.145512 14807.147216 16536.695789 17510.450601 14327.525076 8874.752897 10572.025702 14099.282138 2428.747567 6840.186045 5883.832326 6011.123034 4116.889697 3559.898577 14967.804746 16261.842081 16147.549541 13658.630727 16471.982127 11879.797692 9464.860843 10853.202820 10988.009846 7547.015720 8699.737557 5390.787866 700.499804 14808.954520 16421.484467 17422.021552 11317.476768 10016.218698 9476.334592 10925.482715 8299.064665 8394.188117 10518.804856 1137.549184 10767.671128 1056.502759 14555.321365 14609.422923 15998.348733 16987.027837 9398.858111 6235.112767 13184.784960 10449.031005 12918.183990 15428.629592 5662.298097 4416.301211 4403.267764 14348.881218 12986.980009 13007.423524 12573.016161 12829.525716 7161.292449 9239.886914 9707.416154 9399.763673 8409.745626 12309.735816 13047.946977 1864.888394 14176.306541 9032.344015 1446.109107 17766.963917 15238.426671 7153.527571 8830.184554 11222.328872 6476.364724 10733.062526 8007.744703 3210.580968 3450.782798 14252.070973 10820.578518 4601.600046 11538.010830 6624.631397 7429.858560 12506.793802 8383.918802 11535.207722 6915.381331 2850.634334 5722.121344 3313.927372 14255.944976 13773.504377 12738.998435 13449.415909 9068.851542 9163.460501 12985.875145 11669.172665 6154.091063 10837.888920 11417.968462 4102.756870 1461.058791 14116.191685 13675.031742 12345.672769 14738.223091 15458.260203 10440.172284 14372.248381 8511.241983 10252.073606 13277.314836 5497.209095 5553.036501 2246.083517 14035.728135 14235.311398 13631.273943 14763.704621 8316.986196 8561.114763 11275.487364 8098.288116 2288.404550 9473.689381 10645.925152 13075.319625 1792.129869 13946.048569 14017.032157 12885.960851 12249.229723 10375.851633 14993.527528 12025.223153 13106.701957 9122.743086 7972.113226 5080.811103 5029.257068 1901.156834 13501.512514 12396.882178 10737.186780 7963.203953 14859.366269 12984.834395 12725.777775 5477.449809 14226.917847 13288.475692 14874.567210 2465.712120 806.366557 13101.307904 12896.976107 12119.368076 8740.740449 13373.621839 10254.157211 13807.476761 9392.541583 4096.224223 8392.991347 3668.327217 2072.105571 3318.052453 12897.249642 13748.764603 11787.410393 7628.902521 13040.019597 16269.020881 9258.034755 10359.732493 10762.671827 127.494167 10517.915633 10004.803998 8998.719555 12184.558678 13986.617721 13645.395342 9330.069994 10757.183404 13087.181428 11519.557019 10959.888854 8415.083649 8922.772686 10627.453102 10199.944218 4437.540402 11187.100938 11645.457953 15830.426674 12799.856816 13975.964048 12506.117494 10514.578401 12887.346718 12284.104489 13129.854802 10811.688066 9752.215600 9835.494647 11166.889494 10520.809855 14791.884429 16384.904267 7054.531581 14092.744086 11451.353231 14001.240480 16188.965428 9138.926550 14213.084615 9123.846437 15084.421396 11553.500954 10886.193116 11845.358466 10762.497095 10959.239964 12366.608578 13032.068285 14447.848172 12310.650650 10171.029638 13604.539698 15947.177737 10045.701351
</DataArray>
<DataArray type="Float64" Name="Velocity" NumberOfComponents="3" format="ascii">