<VTKFile type="PolyData">
<PolyData>
<Piece NumberOfPoints="2177" NumberOfVerts="2177" NumberOfLines="0" NumberOfStrips="0" NumberOfPolys="0">
<PointData>
<DataArray type="Float64" Name="Pressure" format="ascii">
 14426.967701 14274.636943 13908.031368 13316.650269 12531.509470 11605.455096 10558.869294 9367.004531 8054.350594 6669.904571 5242.686289 3821.431148 2452.139181 1212.564787 178.509666 -659.777808 -1339.731269 -1883.087684 -2301.796823 -2607.801580 -2815.817409 -2942.762370 -3005.968494 -3021.580990 -3003.485478 -2962.564287 -2906.043255 -2837.068714 -2756.332105 -2666.333348 -2571.491724 -2474.351720 -2375.299850 -2273.825250 -2169.316910 -2061.434172 -1950.239124 -1836.200574 -1720.126272 -1603.059277 -1486.163923 -1370.619263 -1257.531253 -1147.869131 -1042.426932 -941.808072 -846.429942 -756.547729 -672.306426 -593.859870 -521.678254 -457.228579 -403.775405 -365.094548 -341.898009 -331.958671 14530.237740 14302.005125 13814.815301 13207.072714 12425.636449 11468.716192 10441.488568 9269.231861 7987.675356 6639.730444 5182.300322 3730.310572 2272.545521 951.555504 -5.896233 -734.797257 -1361.339993 -1886.238422 -2299.264518 -2603.961480 -2812.192831 -2939.831407 -3003.854533 -3020.344521 -3003.315110 -2964.028821 -2910.330864 -2845.079055 -2763.806649 -2669.790545 -2572.740155 -2474.739086 -2375.393372 -2273.818350 -2169.276468 -2061.386444 -1950.196929 -1836.171341 -1720.114348 -1603.066674 -1486.190744 -1370.664118 -1257.591667 -1147.941863 -1042.507978 -941.891741 -846.505076 -756.584915 -672.216738 -593.369191 -519.975041 -452.698359 -395.034935 -355.846449 -334.480306 -326.098370 14665.825786 14242.947248 13463.091142 13406.110291 13116.268770 11892.607461 10608.828329 9587.369413 8222.627703 6774.421288 5014.589299 3408.666671 1938.683672 252.200671 -354.627044 -863.632556 -1394.085862 -1891.736170 -2297.324388 -2600.282179 -2808.602517 -2936.900735 -3001.743229 -3019.144957 -3003.291404 -2966.022102 -2916.800204 -2861.541120 -2781.879080 -2675.156912 -2574.181613 -2475.185052 -2375.556937 -2273.904468 -2169.341279 -2061.441655 -1950.241418 -1836.201275 -1720.126483 -1603.059334 -1486.163915 -1370.619177 -1257.530955 -1147.868150 -1042.423719 -941.797552 -846.395508 -756.435035 -671.937740 -592.652209 -517.759123 -443.726913 -374.511097 -337.953852 -321.745704 -316.301751 -333.158612 -316.332779 -309.408743 -293.490835 -287.453119 -284.028729 -254.056414 -252.604967 -251.257252 -221.462785 -221.071209 -220.600503 -192.938208 -192.855111 -192.674246 -167.727655 -167.733142 -167.646785 -145.412915 -145.442443 -145.388145 -125.694312 -125.728509 -125.686726 -108.317540 -108.350675 -108.315217 -93.052477 -93.082968 -93.051765 -79.686717 -79.714251 -79.686500 -68.023497 -68.048141 -68.023430 -57.880861 -57.902799 -57.880841 -49.091165 -49.110606 -49.091159 -41.500599 -41.517758 -41.500597 -34.968688 -34.983771 -34.968688 -29.367727 -29.380932 -29.367726 -24.582162 -24.593678 -24.582162 -20.507936 -20.517938 -20.507936 -17.051783 -17.060435 -17.051782 -14.130511 -14.137966 -14.130511 -11.670269 -11.676666 -11.670269 -9.605803 -9.611271 -9.605803 -7.879732 -7.884387 -7.879732 -6.441836 -6.445783 -6.441836 -5.248363 -5.251696 -5.248363 -4.261377 -4.264181 -4.261377 -3.448133 -3.450482 -3.448133 -2.780498 -2.782458 -2.780498 -2.234409 -2.236037 -2.234409 -1.789379 -1.790727 -1.789379 -1.428044 -1.429156 -1.428044 -1.135752 -1.136666 -1.135752 -0.900197 -0.900944 -0.900197 -0.711087 -0.711696 -0.711087 -0.559860 -0.560355 -0.559860 -0.439421 -0.439822 -0.439421 -0.343927 -0.344251 -0.343927 -0.268589 -0.268850 -0.268589 -0.209510 -0.209720 -0.209510 -0.163541 -0.163711 -0.163541 -0.128168 -0.128306 -0.128168 -0.101409 -0.101522 -0.101409 -0.081739 -0.081834 -0.081739 -0.068024 -0.068107 -0.068024 -0.059478 -0.059553 -0.059478 -0.055623 -0.055695 -0.055623 -0.056276 -0.056350 -0.056276 -0.061541 -0.061621 -0.061541 -0.071810 -0.071902 -0.071810 -0.087791 -0.087899 -0.087791 -0.110529 -0.110661 -0.110529 -0.141464 -0.141625 -0.141464 -0.182479 -0.182679 -0.182479 -0.235988 -0.236237 -0.235988 -0.305021 -0.305331 -0.305021 -0.393343 -0.393727 -0.393343 -0.505580 -0.506055 -0.505580 -0.647381 -0.647966 -0.647381 -0.825590 -0.826309 -0.825590 -1.048457 -1.049335 -1.048457 -1.325865 -1.326934 -1.325865 -1.669593 -1.670887 -1.669593 -2.093606 -2.095166 -2.093606 -2.614379 -2.616251 -2.614379 -3.251248 -3.253486 -3.251248 -4.026800 -4.029462 -4.026800 -4.967282 -4.970436 -4.967282 -6.103052 -6.106771 -6.103052 -7.469045 -7.473412 -7.469045 -9.105269 -9.110375 -9.105269 -11.057313 -11.063257 -11.057313 -13.376871 -13.383760 -13.376871 -16.122263 -16.130214 -16.122263 -19.358955 -19.368093 -19.358955 -23.160058 -23.170515 -23.160058 -27.606799 -27.618715 -27.606799 -32.788943 -32.802464 -32.788943 -38.805160 -38.820435 -38.805160 -45.763303 -45.780486 -45.763303 -53.780598 -53.799845 -53.780598 -62.983704 -63.005169 -62.983704 -73.508635 -73.532468 -73.508635 -85.500508 -85.526855 -85.500508 -99.113106 -99.142099 -99.113106 -114.508210 -114.539969 -114.508209 -131.854691 -131.889317 -131.854687 -151.327322 -151.364889 -151.327308 -173.105288 -173.145836 -173.105243 -197.370375 -197.413882 -197.370227 -224.304816 -224.351141 -224.304335 -254.088848 -254.137542 -254.087283 -286.898139 -286.947854 -286.893051 -322.901711 -322.948289 -322.885177 -362.262421 -362.292652 -362.208690 -405.146768 -405.117846 -404.972169 -451.767201 -451.536933 -451.199832 -502.529153 -501.611458 -500.686991 -558.773615 -555.241752 -552.763026 -621.672986 -608.499686 -602.712931 -655.150119 -633.706585 -624.277205 16957.219848 15640.343781 15252.696745 13966.609194 13634.686136 13289.429321 10983.135728 11475.128222 7889.923084 7517.747081 5557.121149 4838.310971 2885.870229 2753.697125 1135.887182 -9179.208602 -9607.316164 -5138.311190 -3048.933653 -1728.129248 -1056.210533 -869.876184 -964.090489 -1177.499554 -1415.862095 -1635.172889 -1819.629428 -1967.469004 -2082.750141 -2170.060621 -2231.878589 -2268.678270 -2280.609142 -2269.023216 -2236.867916 -2188.071105 -2126.605747 -2055.810129 -1978.149951 -1895.313754 -1808.447113 -1718.381871 -1625.799519 -1531.324807 -1435.568435 -1339.138896 -1242.636190 -1146.629171 -1051.598234 -957.764546 -864.610760 -767.367349 -681.311413 -644.500770 -628.658278 -622.861704 17328.338159 16718.841048 16063.499001 16414.991817 14996.961765 14051.958759 15370.518171 14739.197007 11635.390367 10370.453240 9986.196558 8580.589948 7257.061657 6412.861077 4627.277212 1059.963646 -1509.025948 -1993.442015 -1473.937772 -951.386801 -680.971448 -688.577007 -873.814727 -1130.427450 -1390.281121 -1620.903533 -1811.585693 -1962.937364 -2080.194080 -2168.576777 -2230.946167 -2268.025080 -2280.114973 -2268.643477 -2236.583327 -2187.864651 -2126.458312 -2055.703577 -1978.070283 -1895.251985 -1808.398395 -1718.344067 -1625.772007 -1531.307836 -1435.563274 -1339.149580 -1242.675853 -1146.741060 -1051.925115 -958.788069 -867.922781 -780.585430 -705.072787 -660.969080 -639.449011 -631.307080 17537.771351 17352.408725 17150.528000 16504.420337 15350.193866 15183.035460 15290.793184 14542.313389 13292.742033 12420.081638 11778.805418 10689.562757 9413.679979 8245.137522 6711.910564 4463.486653 2103.998711 592.991609 -18.660351 -187.220656 -300.461049 -502.513099 -781.757241 -1083.544403 -1365.787394 -1607.995416 -1804.839509 -1959.497006 -2078.542016 -2167.911906 -2230.831037 -2268.196727 -2280.402768 -2268.941606 -2236.838457 -2188.061533 -2126.603012 -2055.809476 -1978.149843 -1895.313766 -1808.447168 -1718.382027 -1625.800012 -1531.326407 -1435.573648 -1339.155886 -1242.691567 -1146.809662 -1052.186337 -959.684126 -870.801419 -788.953459 -720.850498 -674.254092 -648.285738 -637.764079 14746.960056 14180.950802 13758.097500 14266.409048 14622.770697 13184.917140 11558.460752 11203.022515 9462.473844 7588.958003 4808.136628 2947.568197 1415.774357 -855.655314 -756.079652 -912.264100 -1405.405307 -1894.571238 -2298.052085 -2600.415476 -2808.580006 -2936.857012 -3001.729670 -3019.210330 -3003.542573 -2966.759616 -2919.214284 -2870.355103 14915.226120 15028.178243 17106.362999 14799.688615 11574.712445 14342.471039 13144.062884 16888.131587 13589.025666 12370.101255 15348.219830 12140.871045 12863.124345 15706.096708 13354.249622 14046.178390 10374.705117 17276.478960 9848.682320 15321.341121 15992.588318 14156.851865 14288.868670 14681.565373 10438.542870 11497.576884 2279.670870 5969.086635 15045.632848 16029.900859 19356.227079 10079.469798 14648.868215 12456.406425 13571.861263 9933.768691 14563.882590 14228.132258 14437.356404 12297.199477 11848.760292 13329.451549 13704.883696 14767.008871 10805.939644 11651.067365 13877.610589 10537.323332 10775.358822 14531.743183 16368.563135 15527.842584 18657.146369 14108.701112 13558.651616 13839.529384 15263.764323 13469.626514 12624.749763 13885.219205 15388.669612 11138.713003 14179.468798 13679.056296 12132.284903 8735.206564 4091.103634 10790.180887 10983.237376 9738.701781 11164.968876 11945.279458 10192.509900 14683.559339 12459.239814 13613.294096 12067.190521 9614.518978 6766.306421 12467.592001 15664.463617 11291.772570 12633.284706 11460.371104 15366.006595 12984.652258 9950.215974 17498.755019 9115.932304 13078.973528 12028.326313 4482.836945 13367.168482 7841.626125 10536.927642 9754.141794 15678.322982 10552.434391 2822.578905 7890.851206 11962.571460 11910.746446 8106.282473 11674.822757 4550.011693 14962.463148 14945.398490 4770.173016 3476.488315 7598.197461 4909.079719 7969.616073 15286.732127 14381.225269 14704.326742 13414.215408 12904.037843 12500.812141 15563.227580 12033.641780 11806.575861 11539.632740 12108.285416 13428.983514 12662.245588 9471.995067 10837.602347 14404.970208 9390.650732 5260.028673 15852.155120 16262.937775 8854.345258 11997.599151 10201.863250 11302.902593 12866.948197 9542.364648 6321.066783 4762.069827 15416.107298 14111.772414 12435.030238 11549.562247 12818.880854 12814.027417 6055.294102 9058.686312 11356.922558 8268.870475 11089.968427 11788.087510 14078.109684 13785.538632 15500.361026 5129.168357 4371.025565 12456.643492 13149.719323 9679.513944 3041.564105 13150.985050 11465.669318 11275.184433 8730.496924 8612.749709 7168.510567 2835.817904 15481.607965 14064.764484 10957.860622 13025.626586 14272.629017 13134.013154 14671.507755 12478.602622 11547.954334 12031.021778 13875.551954 11433.541238 6246.387819 5852.853410 13148.769612 13372.916928 9490.773282 11334.428515 8255.740870 5266.383294 15617.195740 9406.657428 7045.153810 7750.923341 7077.256426 3405.234015 4675.497422 8318.044939 15158.309473 16282.910259 15613.799382 15321.004685 16082.942565 13842.611492 11593.068832 15576.104291 10905.328509 7213.571359 7499.484038 14779.785484 10674.939377 13364.551344 8642.748360 3367.984241 7502.478985 3901.428235 8683.866312 5321.964028 9982.883157 7669.261641 3873.344364 8705.736283 5448.478566 4124.873305 8125.402568 1077.912576 14673.874092 18055.262541 21813.135905 14995.001624 14192.213072 14056.098339 14974.691205 12080.723378 5885.708154 11179.531537 5118.547568 5726.415716 2764.396086 8851.752714 5440.420624 10912.352170 5074.658470 4587.561422 10739.343371 7296.860088 9395.153663 8368.368087 6391.973070 8112.564798 10870.315211 8343.450381 6950.182611 718.017378 14345.374513 16617.990954 22146.655277 16178.104681 12507.850025 15202.457462 13097.552812 12173.594035 11055.526732 12392.077074 13321.312325 12081.477062 9049.027231 9280.258914 14619.420418 6169.635701 4404.885179 4694.114563 13317.247853 9726.897781 9499.163743 3866.803791 -215.381570 7366.370187 6428.868882 4927.756391 4465.802458 5031.685205 14596.415645 15554.207551 21905.324454 17686.862989 14026.289333 15605.256172 12435.781465 11098.144368 6845.139987 10155.772633 7425.961593 9657.009105 11327.084344 8957.132406 8058.379660 12026.627173 13517.290332 7675.720861 3820.606684 5293.165068 3418.547095 4945.313521 6724.505398 9654.344532 5550.047152 8661.635246 2468.658305 4813.109202 15249.261725 15180.950420 18573.659199 10997.891313 12981.851872 11330.364141 12995.198282 7292.996497 10911.326984 10540.741466 13324.450018 6113.412739 7336.383888 4452.330189 9120.764381 10374.090712 10237.553571 2071.075871 9485.244781 10606.171464 10159.417860 10444.364617 7747.899215 7224.304517 10884.841389 12712.564208 2946.740250 7384.778622 15701.979381 15652.741268 17334.075256 14377.933909 15271.926478 6719.458665 15805.187196 14201.570252 6083.875044 16488.961439 13766.756301 2796.108385 6853.564546 6422.710444 7564.089161 4959.174554 3951.282508 2128.794674 14150.095044 5937.335072 11337.234951 4979.853849 12182.417230 6747.306845 5814.790281 11904.710466 4536.765001 2730.468855 16086.656567 15031.864901 15927.103196 15835.235896 17598.002503 16679.261978 11436.624612 12953.817834 6248.519593 14810.605604 10717.181625 7830.825119 5770.878119 3154.223201 2519.807009 2133.241069 5733.467506 3092.659220 2172.302944 1679.456841 5490.885369 2875.764006 2949.660196 3486.575246 4906.669865 3775.916476 6147.693985 4994.219017 16422.760316 15223.237853 13907.726604 14391.233866 16373.628949 17727.687580 10813.446291 13640.516949 7398.275179 8073.647542 10643.004841 7255.347963 8173.302434 16431.260974 16256.393667 15197.131897 16047.894828 15922.351284 13715.064261 10591.522160 11012.589890 10595.804078 9285.898994 5858.713856 5228.440491 1748.599862 16231.219395 16104.364815 16140.290846 11552.599387 13340.135472 12871.053850 11612.258794 7093.683159 5388.250788 5053.581736 5226.908183 7104.104806 4527.055304 16121.170926 16441.136356 16577.262641 12951.349137 15914.135090 8306.355721 9339.585895 11853.756967 6560.758333 5034.408932 6738.150682 12256.630143 2700.525773 16108.788894 16423.274621 15667.488056 16082.022246 10624.370392 7937.799697 8219.428647 14016.348588 11555.242268 6454.058089 4153.776638 3260.936632 3310.766691 16175.499378 16718.645425 16388.553699 17844.711410 12505.503984 12038.197143 11619.417494 12791.186558 11712.231867 7502.549268 8635.225765 5516.271198 2384.860974 16177.971804 17167.510372 17714.004879 14420.657663 19236.581907 11668.468501 10578.947962 5330.563345 4309.025564 12552.540889 4736.734410 10127.879216 3606.379300 16182.641301 16569.667725 17910.491324 17807.916003 14301.863526 17496.135899 10804.934013 4164.858457 9104.715470 7159.275208 6573.994955 4149.970844 6961.188355 16302.805537 15752.321792 15923.962561 14847.758436 21127.022115 14750.292882 8087.683134 8152.111641 11108.192998 5220.998838 7762.779369 2416.193367 5198.217662 16439.034364 16239.406700 16366.656574 8855.976091 15187.205576 15732.900701 7426.523357 12462.539880 9498.429103 7792.438122 9046.311975 5426.591163 4046.592967 16460.628290 16580.980463 16115.109979 14524.891041 15132.293054 14436.870293 14826.568248 4647.344366 2816.313632 6920.758132 12194.126255 13204.833371 6253.508898 16500.917093 16911.808558 16357.927517 14433.892031 12708.240897 13095.673741 7695.900425 9858.970577 10872.690384 12657.821569 3886.420673 9378.804475 5753.632497 16478.059183 17710.682374 17625.696268 17769.927711 16010.964915 15093.190459 13828.649938 11835.321880 8664.713316 6002.070661 14975.914876 5266.939509 3853.595427 16353.052042 16961.380058 16950.161243 17452.319352 9173.083568 14265.794825 7246.989337 4424.309707 8919.636978 11852.980759 7508.324231 6557.391742 5151.415588 16368.155340 16789.640088 17061.466054 10334.309612 15445.678003 12982.513353 6838.598710 16827.129151 4039.633066 7156.786540 6558.965173 9916.751080 4536.926626 16540.730318 17105.850817 16837.419915 17730.713727 14464.287776 16576.669405 13349.623237 10329.168141 12228.959142 6613.383570 4875.473937 10346.404590 4599.259631 16687.922132 16615.457232 16148.380014 12177.681391 10368.627527 10129.759306 6542.659421 14527.096261 6283.025934 13117.329730 4873.299163 4967.261772 4754.399913 16666.869600 15768.845617 14833.726553 18809.210116 14140.739512 14810.188971 6582.956325 15768.007853 9257.447788 12354.319119 8387.800434 5300.808101 6651.360782 16638.412892 15703.685589 14073.971693 17325.775656 12076.440729 13988.901153 13874.505512 8408.583381 9219.552359 6392.236700 6882.753842 9940.231653 3715.656291 16691.512736 16467.666735 14445.293534 19244.574768 19440.060322 13641.843851 8067.608020 13670.878242 7261.551952 13351.787411 5525.694791 4206.257298 3085.805119 16649.194792 16560.958219 14155.332649 19389.306980 14873.384195 7618.848209 9960.723558 8212.834841 10510.816769 5204.844888 7260.663622 5908.651483 4561.630738 16565.550187 16675.743208 17068.557579 19820.641135 16300.748521 18048.969818 12391.176253 15080.870338 9138.804836 10410.027297 6492.698374 4893.135111 4947.883737 16672.895068 17954.301212 19624.598253 18231.331177 16427.624658 15576.109217 14788.811268 14988.375133 10487.710871 11762.110559 3446.146424 2183.882400 2647.657078 16966.438459 17845.379580 18114.389555 16519.724243 19518.782364 16263.850621 13284.542430 15425.970810 17363.019644 17281.229291 11561.605517 4674.233276 2978.137545 17203.623471 17865.630244 18193.129284 16519.882670 14930.843271 15843.564424 14730.954768 16056.044412 14212.972469 8367.613352 4787.469126 10118.800441 5906.008459 17368.713675 17612.995911 18438.113320 19818.634625 16130.540472 2806.860637 17104.615519 13336.887533 12441.549959 4237.059510 9316.561479 6605.349368 14615.943649 17610.428105 18086.402269 18379.834665 10180.908624 15675.665342 14595.422385 10078.160308 10080.785871 9648.863000 9256.398007 8268.564868 5820.666792 6871.089921 17865.917916 19336.067466 22448.358380 13859.062266 10987.154641 9102.161742 12391.447959 11848.410457 10175.156535 9044.870391 3825.699092 10307.089533 4756.028597 18052.286172 19966.979051 23990.159956 15840.531817 15143.213559 14569.049599 8253.017184 14730.513917 10460.059648 10237.567146 10086.668067 5405.238830 5536.423535 18272.329953 20253.452349 22415.620577 13569.285310 16602.535113 16300.969208 17448.871448 12852.921563 9757.815746 11531.022739 7500.957092 6108.238161 5343.828267 18531.062967 19432.595466 19703.910929 16047.628058 11855.896265 17269.864117 13953.455752 9831.021358 7735.656505 7105.141651 8738.687461 3172.143725 5810.142385 18655.677415 18077.205696 18094.276120 16401.569688 16431.062202 11045.464861 20136.286324 10327.283156 7664.841492 10816.675821 6878.788261 11931.182256 831.641252 18634.875433 18717.360828 20225.974548 13280.916546 15864.457629 12122.696482 8856.609657 7317.249406 5073.850642 4274.053089 6890.038183 9411.794400 3471.099715 18689.329049 20295.702361 22386.403441 19977.408301 15775.610221 13718.791921 12448.142744 15268.678698 12160.641598 11614.658807 6627.050207 4021.079267 6013.079310 18719.905321 19995.114008 21505.176939 20234.219764 18577.463155 16984.108952 12916.129248 15938.598402 6934.449675 6193.617646 3161.088902 5836.226029 8016.941449 18605.524207 18996.832298 20143.336687 15792.555275 9031.941736 16724.566536 20485.832495 8246.090702 11682.694862 8491.853044 10624.776182 6528.350492 8345.537190 18657.791537 19627.131248 22297.559809 20442.541746 18191.000125 17644.298090 8639.715033 6544.156142 5382.429613 12470.790921 5602.169893 4206.595436 4137.178763 18945.004887 19957.011021 21415.114635 18468.004687 14781.596844 10025.998575 17140.465290 10173.865922 5382.982245 12705.301947 7673.128268 6998.613538 7025.566768 19255.403256 20412.736915 19960.154664 17580.348618 14742.399257 16128.617604 14617.289580 17796.899206 14132.924405 3324.743583 9190.506070 9063.669731 3997.731758 19478.562987 21130.671077 21481.517450 20507.043863 17223.386714 17943.513547 18117.222236 12145.559677 6552.002007 7435.543454 8099.200383 11442.800901 4692.318953 19463.392798 20033.839885 18701.653824 15670.439363 17832.848414 14245.991415 12506.826320 9282.302794 6102.185588 11099.412319 9913.651439 12520.944724 3886.634144 19488.437654 19938.922384 20037.625798 19908.845919 16891.092196 15824.085371 13699.923180 7824.943939 11770.127395 8721.261424 5342.787838 5180.652803 5344.395914 19765.673982 20107.813004 20714.540903 20292.316940 20649.733814 17393.886610 14478.487843 16188.147025 13868.819871 7886.767850 6282.964949 16177.453164 1732.308585 19903.894114 19965.568993 20749.173680 20051.592120 12441.740884 10166.040502 15462.837688 12328.620898 10350.717988 8336.085495 6434.273748 4426.684765 6491.355437 19906.662933 20728.547930 23726.862399 21131.412975 19570.441518 18771.801162 10420.345606 12688.044412 9987.801153 4274.411667 9856.588735 5392.293183 2819.205095 19920.810471 21236.748827 23981.975499 12731.112366 14935.248810 13445.498003 12119.969841 8916.200744 5383.046587 14994.670269 10019.427832 4614.522797 5509.733668 19839.625346 20426.673292 22804.596853 19141.467618 15705.158419 17230.302891 12226.858863 16227.547274 8437.426041 8041.020802 8216.235612 4716.950311 10199.874908 20065.728992 20400.955675 21066.961207 17437.036374 12347.664079 14217.816004 12137.505338 9142.293863 7408.853847 17996.722353 8334.335093 10437.200446 6323.860966 20319.793908 20028.986170 20243.619254 21974.569055 16132.242147 16361.528568 11537.111282 3322.758531 6202.875629 10573.817920 5850.081061 9661.968771 3310.387581 20293.916772 19598.885162 19588.276722 16737.841153 19359.149047 9739.669677 8319.066272 9837.099475 12509.511504 9541.198009 16500.235678 5883.024397 3490.931226 20454.705908 20078.685509 19254.394562 22964.074810 13588.682744 21022.280438 9629.706648 13806.529508 13308.086938 5953.602724 16118.371478 7372.879343 2510.175601 20868.916950 21655.375960 19968.192770 21228.983744 18474.785538 11388.524684 16478.571406 9599.638886 11769.553490 6380.382813 4860.131668 7193.268669 5581.169912 21113.210529 21437.799196 20988.880401 18316.187490 18976.177822 7935.959459 11336.055384 11583.033546 14926.426440 4885.862407 12607.022156 6730.538329 4006.053969 21019.488496 20349.771390 19709.269695 19171.959997 13145.762792 14967.873498 9528.765851 9632.849792 17244.865097 7569.314649 11959.306071 10397.936648 82.599335 20967.356315 20989.768886 20929.787299 17147.184001 16580.584879 10481.599312 13544.414324 8385.575533 7175.394151 8654.859275 7363.208518 7675.688692 8156.363021 20916.358165 20607.957620 19340.752935 19283.119620 12733.188419 17642.026489 15311.651842 15157.551157 12363.551378 9820.337859 10181.503001 4789.727092 4733.204441 21078.509268 22705.410214 19833.535441 14649.385382 11099.573613 8298.634568 12561.754746 9457.615057 12710.127909 11257.050085 9086.534625 7750.184292 5247.328130 21105.154784 23396.638900 19530.725561 20514.386762 7539.615821 19539.181640 18016.289472 15535.665419 14599.118171 15026.002750 13192.658244 6543.431327 4810.363328 20404.574640 20160.154344 19469.142870 17575.465443 11949.319710 9756.443415 12244.066918 12693.436334 9457.651374 9122.040408 5049.360867 6218.410254 7469.051861 19274.168553 18928.584770 26108.802335 20039.063458 17682.016419 15495.661303 11427.782973 12440.082197 13607.894332 11009.461355 8566.523661 9774.475444 5974.681657 19001.331071 21432.848380 34905.432466 18072.847936 11824.880989 16373.392196 15297.499500 8568.243638 8324.788430 7141.972182 7839.834115 12666.682753 5958.105469 19632.626880 22464.115177 25908.886204 10382.035954 13268.908718 12185.950195 18305.644525 7006.543690 15134.077740 12499.439778 9090.267745 5306.079388 2652.884903 20164.928481 19259.454109 15688.886870 16225.953052 13679.100746 13469.090402 16882.808063 14644.405564 12822.573181 12427.504026 7095.346041 739.317792 5991.608408 20562.837706 23361.664109 21064.567738 16956.765581 9661.351602 15357.918318 18941.254646 15107.077608 7711.765986 5996.579943 15127.313294 5069.247479 4310.853258 20808.814512 23177.631096 16359.325168 17872.654504 17124.619024 15506.458179 7014.042512 12677.787187 13935.231841 8871.877614 9886.096205 4586.457794 7277.351002 20552.749621 21132.440452 16243.954137 18002.314353 15434.956881 9064.052731 15448.671157 10730.667459 13401.283869 11286.802986 6899.954220 6310.916314 4844.329320 20536.817039 20294.617064 16798.759619 12092.547009 15927.692468 11153.425140 19430.950503 15634.009438 10757.556658 15978.488111 15782.359725 1073.973765 3863.908213 20421.811574 16618.364697 10755.520668 12644.025244 15162.414216 15661.402005 16471.862230 11011.268083 5725.463092 14343.022715 10242.033673 7407.873979 4533.305777 19645.266096 18735.181638 24108.284895 16831.319504 7095.146065 14502.012018 21762.011028 7897.810737 8968.408705 11728.407332 6746.221082 7220.917589 1560.270680 19396.466512 19947.704001 25173.609941 17331.092394 16499.964280 13732.785443 12351.290958 14535.927092 14168.861483 8453.173541 8867.675011 10420.865088 5689.967392 19938.758610 18799.154277 18019.852225 14143.228724 14752.800297 11257.547742 14714.610317 14893.537969 14039.765476 12871.516799 4618.852807 16817.777180 3624.379342 20168.258673 18342.977761 18489.983564 19046.133576 12291.705324 8049.187758 15211.562993 14740.566370 19244.154311 11195.653569 7904.998727 5746.134332 8403.311973 20109.572282 20644.762632 25729.739388 12822.847132 12804.118899 13832.244558 10752.898765 16583.078852 13665.287431 8639.115664 11571.887854 16253.462157 1934.756486 20293.952396 19753.183096 19062.838279 15465.803581 15789.242568 13285.946899 12603.298649 13493.889954 10937.465013 11462.783647 12089.229605 4289.505864 2665.390326 20700.820597 19359.681183 14939.497745 18601.754351 17274.242697 10336.983620 14284.804927 8955.783749 12245.193345 9111.471717 6441.466992 8966.750467 7033.612262 20596.157325 18204.010502 14288.090930 16659.871469 14636.780226 16663.041307 14752.124572 15051.920310 9750.737432 14052.047600 10850.512666 1445.144404 4624.701899 20697.710004 17947.125123 15422.620632 16036.606991 16943.479235 9842.741462 15786.820598 17031.308750 11582.154639 18738.332048 13789.958720 7914.677382 3932.348612 20794.639284 16954.216296 10327.727445 15583.994093 12792.348450 11143.610167 13446.363454 9676.897089 9121.287272 10863.390086 14029.134378 5707.218465 5159.750870 20333.062164 21279.622632 20370.061004 18100.590404 17605.878598 21578.425681 15095.771581 14841.241636 11799.477519 9800.804521 7608.344781 6616.054921 4403.932147 18903.033259 21016.757157 25302.519408 9695.722026 12966.371806 18028.379367 13339.420204 8190.940322 18418.772950 17313.686364 13852.607292 3546.358060 2566.675900 18169.863311 18313.126730 21361.856668 14290.243381 13584.763514 10958.884840 13952.053351 17172.492660 10757.106957 10265.094998 4170.552416 -1215.827197 8493.281503 18434.704595 17862.197037 16431.985990 8767.366485 16920.265196 12808.272291 14415.377716 10391.137354 11761.901371 4508.288427 11155.863114 16096.648447 16070.948556 18443.627213 16689.426294 11787.149155 16288.334949 13482.506306 14282.177454 17307.553505 17201.788065 9876.344435 17435.723702 12584.401659 13840.229729 4520.762867 17623.272300 18872.345291 21129.942174 17866.872347 15544.457657 11245.454345 21039.368715 15628.150521 11092.821926 22629.350762 13810.809966 19978.207554 12721.748308 16884.280335 17473.840169 22053.168912 24755.056210 18151.153658 16151.412941 16829.330693 10085.677356 11071.705010 15103.248018 14673.722547 12187.274829 8587.555701 16957.219848 15640.343781 15252.696745 19204.893452 11922.369940 12223.169396 12885.238252 15597.682883 3186.504872 18684.319298 12623.438423 19377.909817 4321.169107
</DataArray>
<DataArray type="Float64" Name="Velocity" NumberOfComponents="3" format="ascii">