<VTKFile type="PolyData">
<PolyData>
<Piece NumberOfPoints="2177" NumberOfVerts="2177" NumberOfLines="0" NumberOfStrips="0" NumberOfPolys="0">
<PointData>
<DataArray type="Float64" Name="Pressure" format="ascii">
 15690.806885 15416.335087 14804.780148 13882.363028 12808.104475 11743.530590 10679.576833 9455.470172 7995.895097 6359.493143 4667.884545 3155.456420 2069.375092 1405.828334 760.849722 -328.997603 -1781.943081 -3059.465486 -3936.978831 -4486.217810 -4810.323531 -4970.834108 -5001.511038 -4926.370306 -4767.658226 -4547.099523 -4282.818724 -3984.985346 -3659.431089 -3322.453284 -2998.725157 -2703.936011 -2442.599464 -2212.977524 -2010.618912 -1830.362653 -1667.414246 -1517.864949 -1378.853692 -1248.506637 -1125.756041 -1010.113694 -901.450000 -799.808595 -705.269380 -617.860832 -537.515606 -464.062023 -397.250018 -336.831153 -282.769363 -235.700778 -197.459648 -170.183481 -153.953176 -146.997231 15767.078216 15500.129377 14844.279546 13864.368185 12782.482710 11756.583740 10679.134419 9275.294280 7648.609647 5956.166963 4181.900158 2558.490805 1546.243999 1337.340854 1200.936129 36.109117 -2038.237077 -3406.898657 -4146.753295 -4580.511385 -4849.027361 -4985.068706 -5005.782265 -4927.661652 -4770.153748 -4554.941500 -4301.805617 -4019.088342 -3691.005835 -3337.504464 -3004.661538 -2706.296716 -2443.707971 -2213.615180 -2011.043309 -1830.666631 -1667.640630 -1518.040346 -1378.997476 -1248.633036 -1125.874762 -1010.230510 -901.567517 -799.927063 -705.387293 -617.974823 -537.618323 -464.133874 -397.231826 -336.540374 -281.665007 -232.720196 -191.746631 -164.321509 -149.437102 -143.543914 15867.814572 15544.353628 14471.134639 13555.418295 13210.697552 12859.536133 10710.387704 8665.918735 7002.774673 5194.517328 3512.282168 1607.237464 408.705663 1211.227169 2620.399540 1094.707795 -3081.144011 -4195.897865 -4445.703103 -4699.365712 -4895.670958 -5002.382998 -5011.412368 -4929.736368 -4773.566608 -4565.125536 -4329.885393 -4087.804093 -3764.647752 -3359.046880 -3010.073191 -2707.506179 -2443.717980 -2213.327425 -2010.728161 -1830.396701 -1667.424838 -1517.868238 -1378.854711 -1248.506947 -1125.756120 -1010.113665 -901.449814 -799.807957 -705.267275 -617.853916 -537.492901 -463.987487 -397.005441 -336.027628 -280.155042 -226.651018 -178.122647 -152.926039 -141.723718 -137.799369 -150.357141 -138.865983 -133.984709 -125.820029 -121.740134 -119.331503 -102.779200 -101.797127 -100.866004 -84.813670 -84.551973 -84.226332 -69.913880 -69.860043 -69.734701 -57.430765 -57.435304 -57.376059 -46.967215 -46.986523 -46.950517 -38.225663 -38.246881 -38.220566 -30.956842 -30.976356 -30.955287 -24.943950 -24.960930 -24.943475 -19.996766 -20.011213 -19.996621 -15.948698 -15.960846 -15.948654 -12.654639 -12.664769 -12.654626 -9.989030 -9.997419 -9.989026 -7.843995 -7.850898 -7.843994 -6.127514 -6.133158 -6.127513 -4.761653 -4.766239 -4.761653 -3.680883 -3.684586 -3.680883 -2.830492 -2.833464 -2.830492 -2.165125 -2.167496 -2.165125 -1.647447 -1.649326 -1.647447 -1.246933 -1.248414 -1.246933 -0.938805 -0.939964 -0.938805 -0.703080 -0.703982 -0.703080 -0.523755 -0.524453 -0.523755 -0.388099 -0.388636 -0.388099 -0.286053 -0.286464 -0.286053 -0.209719 -0.210031 -0.209719 -0.152937 -0.153173 -0.152937 -0.110935 -0.111112 -0.110935 -0.080040 -0.080172 -0.080040 -0.057441 -0.057539 -0.057441 -0.041002 -0.041075 -0.041002 -0.029112 -0.029165 -0.029112 -0.020559 -0.020597 -0.020559 -0.014440 -0.014468 -0.014440 -0.010087 -0.010107 -0.010087 -0.007007 -0.007022 -0.007007 -0.004839 -0.004850 -0.004839 -0.003321 -0.003328 -0.003321 -0.002261 -0.002267 -0.002261 -0.001525 -0.001528 -0.001525 -0.001012 -0.001014 -0.001012 -0.000653 -0.000654 -0.000653 -0.000397 -0.000398 -0.000397 -0.000210 -0.000211 -0.000210 -0.000066 -0.000066 -0.000066 0.000054 0.000054 0.000054 0.000162 0.000162 0.000162 0.000263 0.000263 0.000263 0.000359 0.000359 0.000359 0.000444 0.000443 0.000444 0.000498 0.000497 0.000498 0.000490 0.000488 0.000490 0.000360 0.000356 0.000360 0.000013 0.000007 0.000013 -0.000700 -0.000709 -0.000700 -0.002005 -0.002019 -0.002005 -0.004241 -0.004264 -0.004241 -0.007904 -0.007938 -0.007904 -0.013705 -0.013755 -0.013705 -0.022652 -0.022724 -0.022652 -0.036150 -0.036252 -0.036150 -0.056136 -0.056281 -0.056136 -0.085245 -0.085446 -0.085245 -0.127016 -0.127292 -0.127016 -0.186152 -0.186527 -0.186152 -0.268834 -0.269338 -0.268834 -0.383096 -0.383765 -0.383096 -0.539272 -0.540153 -0.539272 -0.750528 -0.751675 -0.750528 -1.033461 -1.034941 -1.033461 -1.408803 -1.410697 -1.408803 -1.902202 -1.904603 -1.902202 -2.545096 -2.548112 -2.545096 -3.375670 -3.379428 -3.375670 -4.439898 -4.444543 -4.439898 -5.792652 -5.798347 -5.792652 -7.498861 -7.505789 -7.498861 -9.634721 -9.643085 -9.634721 -12.288918 -12.298941 -12.288918 -15.563847 -15.575773 -15.563847 -19.576805 -19.590894 -19.576805 -24.461118 -24.477649 -24.461118 -30.367175 -30.386442 -30.367175 -37.463330 -37.485639 -37.463329 -45.936627 -45.962291 -45.936622 -55.993300 -56.022635 -55.993285 -67.859004 -67.892319 -67.858957 -81.778708 -81.816277 -81.778555 -98.016215 -98.058216 -98.015716 -116.853291 -116.899608 -116.851667 -138.588537 -138.638139 -138.583246 -163.536593 -163.585526 -163.519353 -192.029776 -192.064617 -191.973608 -224.429258 -224.405510 -224.246283 -261.170083 -260.938890 -260.574006 -302.917155 -301.968749 -300.977022 -351.318168 -347.656282 -344.971844 -408.349556 -394.624821 -388.294415 -440.191774 -417.460723 -407.291831 15513.919881 15760.165746 16882.806196 21210.064466 19336.302005 20366.653659 17367.497784 23734.319103 22804.265066 18105.835197 16072.686963 21273.250822 18985.468013 23893.127797 16984.727922 23141.821667 15372.927848 21929.714929 14842.597956 9093.315556 22943.621928 2291.931390 9753.453114 2588.237458 -3052.219811 -3318.943692 -3344.980917 -3334.753694 -3302.473217 -3250.686305 -3181.325334 -3096.245005 -2997.307928 -2886.407245 -2765.456280 -2636.358974 -2500.971698 -2361.064464 -2218.287107 -2074.143739 -1929.976768 -1786.960286 -1646.101517 -1508.248361 -1374.100750 -1244.223157 -1119.054496 -998.907000 -883.929643 -773.951075 -667.998440 -560.596269 -467.957116 -428.923698 -412.066602 -405.666291 14864.666192 15033.114266 15432.001029 17386.404516 19180.889412 20258.470866 18914.213006 21148.935897 19200.672534 16568.086552 15484.256033 16769.453459 16938.688654 16608.371427 14736.732555 14704.971982 12349.662153 10424.203616 7888.048425 6028.551773 3883.461919 1970.245682 -30.716106 -2268.647401 -3184.825057 -3324.984241 -3344.769627 -3334.408515 -3302.158121 -3250.402292 -3181.071958 -3096.022685 -2997.117302 -2886.248675 -2765.329557 -2636.263202 -2500.905308 -2361.025313 -2218.272639 -2074.151151 -1930.003179 -1787.002893 -1646.157753 -1508.316154 -1374.179169 -1244.314442 -1119.170674 -999.091655 -884.329962 -775.067236 -671.487720 -574.455446 -492.328236 -444.995939 -421.955696 -413.100715 14336.401436 14643.600365 14927.132074 15716.012224 16787.048546 17104.808211 16924.060206 17481.023872 17003.590411 15938.645940 14990.652415 14401.231878 13877.588597 12971.093746 11922.531936 10300.895261 8267.698477 6066.746900 3926.699982 2057.370803 341.975933 -1072.182920 -2247.645605 -2991.663262 -3259.235461 -3329.374204 -3345.291270 -3334.761895 -3302.473567 -3250.686328 -3181.325336 -3096.245006 -2997.307928 -2886.407245 -2765.456280 -2636.358974 -2500.971699 -2361.064465 -2218.287111 -2074.143754 -1929.976815 -1786.960439 -1646.102015 -1508.249991 -1374.106077 -1244.240574 -1119.111428 -999.093080 -884.537588 -775.940701 -674.429208 -583.116503 -508.518511 -458.102488 -430.165720 -418.805582 15903.857551 15371.807410 14030.999457 12390.704603 12630.200048 13900.640327 10299.240280 7969.725556 7002.112508 4915.198928 2792.781118 506.007516 -1322.159935 966.783433 3658.287538 1638.806393 -3885.017327 -4676.052839 -4543.526797 -4734.983972 -4909.918074 -5008.403484 -5014.089192 -4931.224671 -4775.163339 -4568.452345 -4340.036689 -4124.012087 15923.415552 15701.256151 15852.765827 14099.643819 12660.899385 13726.274841 16278.004839 15140.164182 10747.868131 15125.743955 12554.866039 14392.590228 13403.857735 12605.963408 14045.891139 15729.885303 10561.104729 13936.226334 14909.884392 13904.149588 14885.074770 13687.037862 11487.944515 12834.172168 8453.948386 11829.965721 4760.525263 2859.869655 15857.724827 16013.178506 17129.300340 11247.490523 12849.751242 10254.277858 11675.390953 11230.051309 12214.324028 11503.112091 13031.740180 11075.898051 13779.306910 11281.082473 13352.477389 15709.740677 8513.233242 9337.719963 14610.404908 12591.036665 13727.896891 12427.458131 13371.893482 15060.303006 15908.781203 10328.221316 6794.664075 11121.420199 15775.805511 16141.013949 16654.764839 11341.386609 15214.135963 8767.492871 11984.269515 8992.908227 10680.086748 7292.247305 1887.712198 6225.428541 11038.413638 9825.357253 15515.292177 11415.831875 7369.018020 12530.314582 12061.142342 9992.149671 10831.969696 7979.396184 7980.373077 9917.980972 10698.864051 7613.463558 15033.587181 5316.381145 15725.495866 15739.079562 16093.658152 15498.650156 6600.196261 10543.229292 10766.746629 3287.897222 10529.111476 8752.026395 11138.585439 12835.723596 12281.018845 13017.358145 2120.885539 7722.430222 15267.461033 9423.328245 5943.225488 10390.173708 1739.306343 5236.340832 13738.165422 3027.323474 2097.489219 3138.541531 2355.586521 8519.476435 15776.844396 15812.167702 16786.051677 11363.276822 13807.454465 14801.978646 15816.368050 11220.729336 12251.016262 9544.455965 6705.107415 9898.611356 7797.515977 5767.348311 4480.550388 13204.126049 11421.613549 7160.208180 11589.389502 11849.659866 5786.867856 11406.831130 10993.162359 13647.240763 11268.335118 4294.707719 4515.765621 5499.402265 15912.050199 15644.031481 15470.940419 11990.318096 11507.335701 9893.105807 3519.456840 4363.418937 9639.332927 9189.623013 10415.702477 11378.875837 16178.965438 13805.605416 15744.603029 5041.580283 6772.838295 10097.473796 8121.994072 9806.384895 3866.588302 10662.667521 9246.670422 8315.709796 4119.145105 8493.761056 2799.499316 2574.375824 16066.044694 15040.357755 13545.169587 16626.951212 14478.020131 14834.203325 13578.217298 13254.538517 11510.640535 10692.719298 13547.496904 12416.851055 4888.601902 6820.206688 9856.509671 11292.161687 6700.205334 8837.260552 3986.870193 4662.368671 10247.182129 8573.270262 6190.954892 3724.651616 7379.311787 2509.408009 4017.879442 541.925865 16115.641397 16107.793183 16695.535933 14803.953924 15807.103325 17055.176749 11944.178519 15830.703722 8337.063059 4768.940057 8867.782163 13173.646666 9006.651969 16673.622961 6688.662151 5169.558137 4818.531114 3482.941325 8246.677869 2743.888279 3824.714185 8412.372902 2783.699550 4681.001445 5433.098518 2776.712462 5582.956837 1453.367800 16252.557497 17740.183478 19552.373289 15878.571280 15778.065662 11593.212529 14287.151621 14464.930901 5052.608459 12331.587412 2531.730978 5099.777991 2687.481012 6891.555781 5768.424740 8066.407962 7276.764230 4823.873974 10993.937271 6463.138162 9591.180104 12441.906353 6821.246415 1760.970786 9439.607091 8029.030346 4088.547085 2225.958240 16647.439565 16477.341369 16681.325113 17737.067265 12696.756872 14720.544377 14273.198681 14615.773183 8788.381185 16138.958117 5257.959385 14463.270697 6479.156188 11319.926023 12458.836929 1981.439874 3135.051195 5417.228297 13598.794538 6961.740355 5598.472786 4311.016704 4144.061343 1963.355416 6905.549716 3724.941958 -188.363346 2446.551729 17068.373503 16302.759164 14880.686990 16950.060412 13765.476441 16690.076882 13868.432040 13394.053231 4299.236746 10878.096972 3870.751899 7686.423972 11761.545667 8228.785394 8560.581962 14175.632336 14148.893074 8764.886278 2760.858886 3864.545797 4035.150228 3614.555843 6607.447595 7485.349910 3861.326518 6472.311586 4230.610119 2445.901029 17468.836811 17459.297520 16787.661184 11698.908732 13693.311321 12572.427490 12975.089705 7994.280654 13241.076225 9774.392083 8378.333800 5303.271877 10448.892375 6178.628738 9896.074705 8775.580720 5929.041862 2156.905785 9256.784862 11729.734733 7846.381769 5440.039952 5536.617678 5085.103357 8866.187120 10406.773710 4529.409870 6418.744517 17779.684021 16919.165769 15946.380413 14742.280216 16622.079708 6815.085190 17330.324100 14775.398004 8856.409297 12463.490710 14001.705715 4499.500926 8833.306288 4905.429009 4223.309715 4162.721730 4433.693605 2336.384621 11687.334717 7827.393512 13385.899930 2862.349018 14348.038092 8653.361638 4645.496172 10188.999531 1953.554532 2283.234870 17937.364131 17418.436742 16300.459494 12570.827520 15775.758690 16333.490639 9304.491654 14989.808146 3876.949090 13137.867015 9170.981751 6678.551926 8449.782661 2125.273756 3098.863520 -369.149482 4009.687885 1153.795272 5012.128188 2432.624943 2704.471746 5569.597768 4594.234779 3880.483659 1166.188816 2208.127991 3431.100612 1405.001568 18054.199236 17630.569302 16948.282807 15466.189503 15606.705703 16723.594586 10549.013313 12609.191413 5873.000601 8060.490430 7624.195576 6858.747877 11272.087127 18204.724054 16841.254964 15211.040831 15648.732116 14105.427091 10861.756673 15204.503208 11180.911260 10253.365278 7651.303663 2717.996685 4593.285659 479.798714 18177.397325 16591.736608 13932.028469 12444.939111 14025.799492 11223.414690 10122.544604 8783.410001 2286.254660 6299.169863 3985.262154 2165.761625 3460.664571 18001.715049 17274.030634 16798.180262 11719.403888 12701.344079 6641.920307 9163.412229 10193.186391 5287.730176 3304.092430 8394.974769 10816.304719 397.015458 17868.327661 17254.675534 16029.369662 15223.352720 7108.003321 8319.104949 5392.506566 15045.209073 9734.903981 5036.021639 3451.808706 931.822047 864.114383 17789.749235 17384.226838 16019.953385 18029.196098 12549.106028 11872.537957 11036.666619 6601.056861 9188.502785 1832.234273 5610.096784 4591.266015 1152.163053 17876.617299 18057.949246 17981.263307 13727.327142 16977.789655 17601.673731 12839.754581 10935.195423 3708.766824 11024.099666 3733.342999 8903.505933 2035.056717 18028.077591 16847.887133 14478.114651 16632.089578 15810.571458 13443.621208 12091.305144 2049.516026 11046.230472 5124.913228 4177.347689 1318.559327 2967.565261 18125.519096 17584.110358 16608.787504 16534.392968 17005.785330 13731.352213 11413.408483 7419.752728 13563.015047 6037.622107 6298.659585 2810.541152 2837.938716 17830.496373 17671.832126 17049.560002 11667.845702 15048.143631 12106.826168 9507.514559 12347.522538 6275.539156 3992.660741 5893.799457 4842.888779 2207.297946 17381.929701 17139.987581 16129.836694 17311.137209 14346.157523 11606.295873 15792.659253 6460.435117 3758.441327 6775.499659 10068.357146 8043.065566 2945.951572 17203.244083 17721.642794 17123.102842 14569.746632 9480.096636 14885.674804 5095.786603 10401.220899 11490.493694 9697.143174 2724.710156 7069.337675 3441.814831 17376.756648 18622.155247 18550.554444 18040.932033 15694.875778 12742.917762 8522.284646 9705.380134 9882.482146 6661.075674 14117.854504 4452.630936 1050.357281 17776.609855 17850.781201 16543.692438 15810.752918 10320.957865 10313.001602 6373.438438 2876.194119 8706.113753 12364.425933 8167.203492 1795.991577 5037.728548 18097.228992 17629.703969 16046.706008 13419.039299 16030.477940 15486.662311 6218.756036 14991.141078 5652.779306 9724.828326 5305.306143 8876.373143 5149.489988 18240.120121 18493.466245 19059.670673 14958.213920 11414.544319 16159.897208 12808.541121 12226.105445 10779.628122 6392.170418 5456.433743 6995.467618 4715.531088 18419.590556 18988.351112 20595.302076 13490.197287 7872.866588 9283.439153 5172.273153 14073.477304 5705.040379 13035.114485 7316.495781 2678.384401 681.360172 18812.099781 19558.507394 20557.729342 15194.290659 16368.634326 11645.065993 8745.807993 17796.218224 11845.246005 10733.670742 5395.952819 6361.060785 5390.981977 19009.641017 18622.633051 16167.346535 13256.152192 8950.321762 13153.679765 9057.139405 8087.243589 9058.568799 7558.772242 9124.105500 9877.610673 7008.153236 18936.487747 18380.372303 14655.833203 17288.843570 15099.515921 8205.259242 5379.691739 8534.371325 4425.445844 14979.225563 5730.280452 1588.466872 4709.433915 18974.962380 17916.368253 14186.745862 16487.968106 16388.819081 8507.259706 9981.844468 10387.211910 12240.572546 6532.301154 3472.344142 8620.794813 4512.123335 19286.908377 18544.823576 15208.871628 17121.248267 12798.695671 14950.275957 10156.468990 13530.183138 6574.511753 7315.349935 8811.350471 3642.732091 4878.961481 19488.909820 19749.697132 17712.761976 16314.928209 12835.961713 14220.429356 12991.469678 13952.493331 8424.511685 11092.139965 2861.744463 3962.603728 6170.616961 19185.734127 20229.287678 20121.748913 17089.687534 16189.662356 14763.312880 10044.704226 12430.659952 17551.935895 10240.758670 6156.005376 6094.532065 1182.332236 18647.201060 19663.448102 19938.821810 15000.638907 15879.236772 13903.175143 16311.984326 17100.105603 13752.304774 6966.293183 1670.836691 6775.515646 3543.612945 18395.000473 20915.068149 23161.086826 15966.503059 15009.903401 7763.971405 13587.911214 11821.675378 14983.876247 1250.608420 7968.525373 4970.242947 9851.585583 18312.849025 20038.336099 21531.359279 11617.350403 15573.421832 12847.859840 7748.045845 9718.980575 7418.900700 5565.865694 5208.321666 5047.215587 7350.848462 18383.111213 17912.009896 15049.185999 14071.289965 9290.754554 6360.252451 9372.140884 5478.907956 9554.231255 5067.104334 2727.067948 11121.473386 1538.097180 18587.774242 19713.883948 18878.691512 13311.960056 13353.468357 12552.011294 6905.902713 11952.316556 9513.307872 5035.706643 5750.943096 4007.937230 1442.684228 18616.210752 20678.229371 21281.343612 15062.129836 16194.308942 13237.990262 11914.187672 15433.806102 12949.350195 10247.352017 4833.748957 537.289134 3965.652423 18623.792705 19430.708572 19113.181401 15463.581648 12762.507778 15539.506057 12133.220610 10636.582606 6207.319727 4749.741374 5322.955568 5485.158747 4174.844572 18767.585188 17435.775775 15834.033222 16651.183301 14723.385723 13398.644624 15121.500891 6696.618595 2709.269762 8424.779329 3365.844183 7873.366994 6733.748819 18923.961222 18551.303939 15845.416922 15697.970969 20123.438752 8235.176734 2948.856168 5874.373549 4862.147345 4470.379247 7700.564676 7660.027220 3509.707335 18797.187470 19679.934561 19504.416931 15370.452276 18945.530243 15982.145221 13738.922289 15693.967621 12840.631647 10310.565128 3803.077389 1414.863755 3329.204849 18736.494515 18485.312686 18069.516506 16787.929329 15105.463718 14286.314576 13064.331745 9311.380998 5177.829533 6252.491816 3013.175069 7054.655318 7882.371461 18927.704373 18084.139932 16853.912342 14242.646113 11942.909929 22607.579470 19411.381821 10808.446348 7170.018222 8770.601641 7418.705497 4379.024535 6173.892031 19176.081996 19313.845563 18773.033459 14859.887056 15935.335102 15322.589557 10212.291178 5928.577099 4924.633365 10862.162943 5993.673882 1560.744837 3374.097073 19324.056995 18505.109241 15896.113578 14385.908577 18935.097633 9813.567919 18807.133338 8827.082877 7089.387503 5719.955003 12122.629156 8608.236015 3412.027789 19467.189296 19072.457571 18085.879001 15175.130375 14162.650625 18407.879618 9231.310803 18536.376896 15507.843836 5720.833366 11186.832887 7089.303025 2254.177592 19355.976923 20076.473551 18129.690903 14408.690559 16539.097763 19721.282055 16607.658353 13359.451894 6581.262452 8605.985294 6790.974380 15151.998444 8958.082613 19113.871097 18484.159035 15121.988851 15743.057615 14998.934104 14611.008057 13259.041002 9659.134074 7538.214999 10265.351941 10124.358333 5263.322555 3137.301362 19001.645498 18521.412799 16268.389685 22078.367505 20625.371010 17151.935793 13995.353526 11418.372292 17480.338152 9740.465253 5848.579612 947.652731 2990.970518 19111.822354 17878.910802 16894.078275 20187.055968 17782.076988 17306.472921 11185.218351 12595.989341 10723.408446 9361.016253 10816.411668 18945.526642 6742.456926 19479.994528 19190.401074 19102.781419 18884.891465 17859.643867 5064.344851 19795.675411 14083.776285 11776.679787 11063.138533 7911.005226 5922.851344 4489.473633 19654.367813 19678.768797 16760.802087 14120.347721 18270.200752 15189.170184 14366.264034 18241.348667 10735.150146 5423.504433 6846.924761 10978.048005 4200.467112 19407.069246 18493.031133 15584.158838 15988.176369 17257.917191 15868.868157 13129.687211 9534.879876 1986.576505 11306.271448 12551.418277 3322.035609 8172.418838 19143.121328 18132.873605 16455.988429 14806.025489 15903.626335 17786.472494 14277.527657 15649.714384 8398.591990 3738.489415 10383.324357 6265.924936 4377.779737 19219.249131 18818.970307 17962.807482 21567.042745 14424.190454 15865.929917 14329.753050 12602.076393 10802.062595 10583.485261 9007.075521 10584.366635 4910.230940 19403.839517 19464.624952 21664.289642 20372.669642 16330.572472 17031.583637 14063.517533 10679.902104 8314.222880 12061.150662 6895.782918 9380.590829 3301.485232 19281.929434 18995.769324 18809.921367 18470.588960 18518.538970 15002.453629 14529.693327 17858.193525 17694.857575 19146.024743 16953.977604 4287.240772 3944.860540 19191.411608 20273.833266 21470.865943 19122.512463 18606.182579 17707.099099 8656.114246 13176.472876 12829.688013 5230.662927 11627.579797 10151.371505 -1106.733364 19459.144947 20495.742768 18581.634067 21356.940866 19176.568753 13284.579315 14616.726105 12191.347268 11170.676629 8137.544625 7227.240140 12854.731281 2763.098676 19986.998801 20128.071681 16630.579041 18400.510420 18264.228878 7835.212634 14531.460799 15069.828929 15703.966438 6260.486653 12189.694978 8120.711624 3311.493694 20552.418614 19700.988946 18158.823297 21170.839821 18166.734622 16858.798972 8631.134505 15286.809678 14290.750021 11902.536753 14542.274985 12359.395713 -942.995180 21024.330630 20220.431743 18592.995813 18522.191118 18895.690011 11349.842844 14154.557261 11997.621537 13436.435999 12837.768417 4997.335912 12043.990925 10421.444691 21420.057377 20686.374166 20293.647372 19488.611507 14822.526448 15084.807613 13680.985167 22662.059938 17135.687660 14582.572428 9609.152567 5804.248468 6619.426208 21697.958257 21256.973042 21153.232386 18550.991631 17159.986114 19297.256835 6861.864381 14504.731662 15045.560516 14009.089956 8913.674844 9061.708879 7480.824912 21787.845226 22211.203619 21177.618356 20409.396800 15786.992855 18117.516232 19919.222849 19755.395781 16221.463743 13513.802142 17634.363315 8492.407372 7927.066070 21635.756798 21222.530057 19886.261511 22273.397156 16398.599140 12604.896443 16366.397393 17529.239920 11718.752693 19724.399875 6311.984367 7783.109791 9906.433072 21362.487005 20490.418222 21009.086109 17574.690196 16914.437269 13940.607660 16067.183599 16369.998224 13968.254549 19088.690774 13654.527650 12336.858744 3150.002635 21264.056343 20495.365121 23347.705059 22394.958160 15984.122301 18537.199924 15174.831474 10246.921084 15647.886131 9518.511308 7859.218695 8460.321287 4361.418951 21204.170211 21495.925533 23947.862274 14112.867771 17877.185251 15867.115258 19745.244742 7256.019591 19750.334459 15760.078494 17277.157778 1258.597834 3144.433179 20963.764208 21787.007851 23601.926888 19822.398985 13164.246016 16289.758014 14001.707337 14828.055779 19414.359939 16195.884740 6325.937276 9333.122436 16725.084476 20693.966379 19815.862923 21841.285508 17161.800986 17691.463499 18019.470209 18956.695472 19485.606768 16066.137852 8878.646917 15537.444959 2224.214065 9571.646406 20790.401992 19784.339469 19955.902885 19481.100460 14981.271217 15932.277294 12648.811746 16942.660507 11309.926280 14606.031659 8616.583248 6767.985330 14185.477071 20933.838190 19343.602240 16960.655085 15821.813705 15940.328858 19747.089435 19892.139632 4354.553629 15765.829544 15649.700279 7296.805607 2356.221862 1896.222282 21274.363705 21319.435689 20240.381104 18566.921478 13375.728928 18847.609321 26757.688282 21555.862336 16008.042006 22273.780822 19778.484967 2499.798741 4258.101923 21338.112984 21407.375413 17530.212740 24650.821031 21157.260572 20452.506875 15861.852692 15912.933866 10510.740134 18484.282165 15263.857853 11136.344298 7543.198704 20909.237789 22836.938515 22983.850033 16377.771813 11573.240768 17053.052345 22865.088549 6423.126589 14636.265978 14672.640248 14655.793077 14362.838082 3273.052738 20499.148457 21929.637037 22975.986645 22377.217463 24676.274123 20412.666821 15824.135882 17267.019300 16035.823694 14499.493082 11065.213593 10356.733691 8704.109915 20763.023433 20226.772439 16686.896803 16486.952366 15905.684971 11183.095407 19826.749546 15937.619524 18516.379138 20543.434964 8077.131512 13504.061000 14944.642937 21140.219767 23518.556544 21915.366053 19351.246465 15628.275271 15928.838269 23099.556407 13172.039800 31944.309824 20228.386123 8654.653774 8741.118247 11230.314279 20737.610874 21754.550700 19035.234384 17498.815901 19429.246244 21246.244528 21968.531333 20225.303284 32646.340257 13723.205690 19301.768232 16144.504043 -6627.794428 20278.957324 19540.286030 18319.066534 19403.882397 27453.989152 19705.696871 21310.609455 21505.479985 11014.119365 15982.177818 15722.950854 8034.248297 -2044.275052 19751.451190 20963.652245 18703.612997 19423.236980 18756.086984 18834.551653 27554.064002 16980.166095 16113.038678 11397.449705 9953.810241 14888.246502 8085.290871 18796.955270 20599.911568 25060.534179 17347.810129 19559.083923 27450.647249 17562.696609 17759.182761 12582.741234 25991.510006 21224.682608 7384.164723 2674.795293 18405.734638 18146.431641 22246.777605 20722.624147 19031.542630 23232.877264 15964.289977 20306.253763 18731.631015 14557.363045 19472.836257 11135.098908 3711.199201 18781.053335 19944.684783 17565.301239 21317.656783 29626.091301 15707.108624 19460.817119 14535.905873 10251.226509 17610.217388 18832.924213 19906.125774 7463.101060 19058.876868 20846.233508 16577.779463 27445.247798 24266.823173 27177.124308 19468.245617 16753.750028 15340.350214 10160.569195 18163.438998 4179.192177 469.553205 19142.788978 18792.672384 14033.218353 15063.605975 14766.872698 18034.731210 14561.864791 17313.005829 18661.334068 23024.573406 22490.142378 6657.611317 11954.118746 19136.785350 19383.569808 20857.256187 21475.679471 19304.916369 19572.448685 15196.190187 22251.700705 14940.494951 23601.766733 8883.174677 7603.442922 20.503629 18940.314668 18908.341806 15762.183006 17912.426433 19106.535437 18708.222565 19048.469925 21542.536452 16851.893876 6800.251011 12589.810887 27530.686013 22515.824844 18608.855409 20867.481696 19865.624906 19528.907275 18995.838875 15810.179644 28912.252262 22641.552694 25380.542696 18823.684123 21077.748139 19262.301358 6104.189742 17836.224452 18697.889441 17750.632318 23866.776869 19759.410277 21092.754077 16063.412232 21118.816776 15972.825607 20985.614072 28775.950060 24354.154334 20677.858596 16497.956554 16258.395904 15391.062718 21414.573826 24340.726852 26868.651925 28430.513045 15927.969513 19860.683417 23049.783994 21963.413141 29071.372877 14874.715985 15513.919881 15760.165746 16882.806196 14598.906481 19594.885821 27590.042274 20208.122609 22422.973397 20650.538075 16514.466106 20258.156695 18578.662885 22054.241797
</DataArray>
<DataArray type="Float64" Name="Velocity" NumberOfComponents="3" format="ascii">