<VTKFile type="PolyData">
<PolyData>
<Piece NumberOfPoints="2177" NumberOfVerts="2177" NumberOfLines="0" NumberOfStrips="0" NumberOfPolys="0">
<PointData>
<DataArray type="Float64" Name="Pressure" format="ascii">
 14624.407407 14398.685549 13948.015336 13282.518404 12419.234832 11434.727673 10401.136114 9312.911364 8115.435551 6775.809420 5300.305470 3815.574891 2513.196635 1510.775309 805.570900 323.530924 -16.514901 -268.286329 -463.523021 -624.425373 -767.730161 -904.394093 -1039.644739 -1174.244682 -1306.222438 -1432.553936 -1550.776862 -1660.283022 -1760.906035 -1848.385952 -1915.682465 -1958.558606 -1976.289040 -1970.276293 -1943.073722 -1897.793979 -1837.721436 -1766.046501 -1685.693243 -1599.223965 -1508.804674 -1416.214457 -1322.882389 -1229.937999 -1138.264850 -1048.550781 -961.332658 -877.039314 -796.048457 -718.805820 -646.143707 -580.005285 -524.313748 -483.593621 -459.036647 -448.512614 14670.252780 14497.411674 14111.572319 13408.025292 12423.454251 11414.741776 10420.911988 9337.591535 8141.233586 6866.682074 5325.310132 3641.636873 2247.009905 1292.502985 657.306496 239.449226 -55.439273 -284.757216 -470.600530 -627.844861 -769.629157 -905.477653 -1040.096957 -1174.000988 -1304.936889 -1429.357692 -1544.059335 -1649.004997 -1750.856892 -1843.568816 -1913.664269 -1957.619695 -1975.733419 -1969.878122 -1942.763712 -1897.550079 -1837.534094 -1765.908619 -1685.597844 -1599.164078 -1508.773711 -1416.206536 -1322.892468 -1229.961769 -1138.298243 -1048.588486 -961.363601 -877.032383 -795.907256 -718.231442 -644.250568 -575.017913 -514.657177 -473.194463 -450.511032 -441.663275 14789.463014 14728.490353 14431.409952 13234.217673 11859.824251 11426.843496 10221.812886 9014.152679 7508.576966 6622.069359 5193.794888 3143.110770 1635.510200 1041.312629 501.370191 142.305639 -101.321130 -304.181093 -478.913205 -631.799260 -771.771975 -906.672897 -1040.583845 -1173.712928 -1303.444806 -1425.437042 -1534.372733 -1626.671523 -1728.403541 -1837.372053 -1912.299591 -1957.504166 -1975.960929 -1970.174141 -1943.041922 -1897.784083 -1837.718359 -1766.045544 -1685.692944 -1599.223864 -1508.804614 -1416.214346 -1322.882053 -1229.936908 -1138.261291 -1048.539161 -961.294719 -876.915450 -795.644172 -717.484624 -641.864792 -565.314175 -492.198081 -453.132243 -435.836347 -430.186033 -447.271620 -429.181005 -421.885900 -402.079823 -395.543778 -391.929922 -355.811041 -354.240602 -352.801289 -316.500155 -316.073063 -315.570712 -281.278528 -281.185992 -280.993296 -249.458440 -249.463183 -249.370834 -220.690230 -220.722311 -220.663328 -194.732519 -194.770727 -194.724259 -171.376216 -171.414111 -171.373680 -150.424184 -150.459856 -150.423405 -131.686483 -131.719427 -131.686244 -114.980058 -115.010212 -114.979985 -100.129498 -100.156947 -100.129475 -86.967901 -86.992781 -86.967895 -75.337553 -75.360017 -75.337551 -65.090371 -65.110582 -65.090370 -56.088141 -56.106261 -56.088140 -48.202558 -48.218750 -48.202558 -41.315127 -41.329546 -41.315127 -35.316927 -35.329726 -35.316927 -30.108299 -30.119623 -30.108299 -25.598447 -25.608432 -25.598447 -21.704997 -21.713774 -21.704997 -18.353519 -18.361209 -18.353519 -15.477029 -15.483745 -15.477029 -13.015476 -13.021322 -13.015476 -10.915234 -10.920306 -10.915234 -9.128595 -9.132982 -9.128595 -7.613280 -7.617063 -7.613280 -6.331962 -6.335213 -6.331962 -5.251812 -5.254597 -5.251812 -4.344066 -4.346445 -4.344066 -3.583625 -3.585651 -3.583625 -2.948671 -2.950391 -2.948671 -2.420320 -2.421778 -2.420320 -1.982300 -1.983532 -1.982300 -1.620656 -1.621696 -1.620656 -1.323484 -1.324361 -1.323484 -1.080691 -1.081431 -1.080691 -0.883787 -0.884412 -0.883787 -0.725692 -0.726223 -0.725692 -0.600580 -0.601035 -0.600580 -0.503737 -0.504132 -0.503737 -0.431448 -0.431797 -0.431448 -0.380899 -0.381216 -0.380899 -0.350108 -0.350406 -0.350108 -0.337871 -0.338162 -0.337871 -0.343729 -0.344024 -0.343729 -0.367953 -0.368265 -0.367953 -0.411553 -0.411893 -0.411553 -0.476296 -0.476678 -0.476296 -0.564754 -0.565191 -0.564754 -0.680363 -0.680870 -0.680363 -0.827503 -0.828098 -0.827503 -1.011601 -1.012303 -1.011601 -1.239249 -1.240079 -1.239249 -1.518343 -1.519324 -1.518343 -1.858244 -1.859403 -1.858244 -2.269959 -2.271326 -2.269959 -2.766343 -2.767951 -2.766343 -3.362318 -3.364205 -3.362318 -4.075119 -4.077327 -4.075119 -4.924553 -4.927128 -4.924553 -5.933277 -5.936270 -5.933277 -7.127096 -7.130562 -7.127096 -8.535271 -8.539273 -8.535271 -10.190842 -10.195447 -10.190842 -12.130956 -12.136235 -12.130956 -14.397199 -14.403230 -14.397199 -17.035924 -17.042790 -17.035924 -20.098574 -20.106363 -20.098574 -23.641988 -23.650792 -23.641988 -27.728679 -27.738596 -27.728679 -32.427084 -32.438213 -32.427084 -37.811765 -37.824210 -37.811765 -43.963559 -43.977424 -43.963559 -50.969652 -50.985040 -50.969652 -58.923577 -58.940593 -58.923577 -67.925116 -67.943859 -67.925116 -78.080084 -78.100648 -78.080084 -89.499992 -89.522464 -89.499992 -102.301564 -102.326022 -102.301564 -116.606100 -116.632608 -116.606100 -132.538666 -132.567273 -132.538666 -150.227098 -150.257834 -150.227098 -169.800815 -169.833688 -169.800814 -191.389426 -191.424417 -191.389422 -215.121135 -215.158194 -215.121122 -241.120930 -241.159969 -241.120889 -269.508583 -269.549457 -269.508451 -300.396471 -300.438923 -300.396042 -333.887279 -333.930780 -333.885884 -370.071790 -370.115015 -370.067258 -409.027321 -409.066450 -409.012600 -450.818667 -450.841845 -450.770856 -495.507584 -495.476651 -495.352316 -543.191404 -542.979759 -542.687146 -594.134560 -593.309188 -592.498228 -649.444895 -646.275833 -644.109156 -709.850062 -698.055082 -693.022125 -741.282263 -722.262433 -713.988321 14931.137581 15201.161460 16237.336491 18247.293007 13428.354303 12142.194706 15307.533214 14384.113307 19482.749901 12991.309256 13014.002750 15475.242345 11770.675874 13692.506304 13868.053037 11819.552371 13365.126424 9573.441772 1152.575683 -252.931734 -738.574752 -1024.717416 -1230.563912 -1386.663655 -1507.233273 -1601.389188 -1675.637753 -1734.630832 -1781.541767 -1818.367121 -1846.213217 -1865.564907 -1876.523125 -1879.000831 -1872.872869 -1858.080508 -1834.695216 -1802.948482 -1763.235443 -1716.100103 -1662.209163 -1602.320374 -1537.249929 -1467.842044 -1394.942490 -1319.376438 -1241.928849 -1163.320759 -1084.160283 -1004.794938 -924.888394 -840.301120 -764.490849 -731.824247 -717.808011 -712.794397 14473.163791 14728.641441 15789.679707 17760.357114 14786.396244 10513.085970 12937.086348 14337.915725 15163.680379 11744.972194 10058.151027 10115.960461 9437.816287 8979.491244 8179.957425 6868.844377 5062.862822 2568.570917 625.499352 -302.689855 -742.067998 -1024.325148 -1229.914972 -1386.126388 -1506.820668 -1601.076107 -1675.397605 -1734.440416 -1781.382228 -1818.224181 -1846.076983 -1865.429374 -1876.385483 -1878.860704 -1872.731561 -1857.940329 -1834.558925 -1802.818856 -1763.114981 -1715.990841 -1662.112599 -1602.237473 -1537.181219 -1467.787855 -1394.903589 -1319.355885 -1241.937842 -1163.397593 -1084.432628 -1005.694279 -927.841045 -852.107945 -785.960349 -747.084692 -728.110749 -721.003192 14023.649767 14109.720385 14392.757709 15109.649902 14894.795952 13526.519812 13392.997124 13119.770599 12060.707343 10565.509429 9457.366385 8697.126286 7925.553315 7020.961049 5872.012412 4479.032335 2923.645546 1415.829722 315.321520 -344.446676 -748.703383 -1026.066088 -1230.766495 -1386.697012 -1507.239100 -1601.390253 -1675.637956 -1734.630873 -1781.541776 -1818.367124 -1846.213218 -1865.564907 -1876.523125 -1879.000831 -1872.872869 -1858.080508 -1834.695216 -1802.948483 -1763.235447 -1716.100116 -1662.209205 -1602.320510 -1537.250373 -1467.843488 -1394.947191 -1319.391744 -1241.978685 -1163.483042 -1084.688584 -1006.517770 -930.440617 -859.627230 -800.206264 -759.323972 -736.491382 -727.266916 14890.909927 15034.407900 14762.853885 12648.035285 11485.659531 11888.569935 9843.583811 8418.953488 6684.449190 6347.325014 4618.644054 2411.575033 1152.266056 1113.375575 474.978272 114.963310 -114.515376 -309.917215 -481.479847 -633.036438 -772.407253 -906.998403 -1040.715140 -1173.664864 -1303.112350 -1424.439847 -1531.103559 -1615.164849 15185.810269 15591.749996 14730.397080 14302.347261 12430.813962 14490.352579 13334.132916 14408.067786 7415.048307 14080.484763 15968.745392 12112.933264 15355.233910 12681.025566 12749.349228 16734.697963 7442.526865 15389.327388 11778.807720 16473.900332 13860.980253 16179.454483 13065.277328 11847.310691 11088.494337 14675.948640 4647.849127 4444.151335 15489.796441 14509.646959 12453.917696 9603.263077 12675.903399 12396.296659 7526.845442 7540.654674 12621.784987 11112.613019 14117.523605 10083.725838 12101.242503 10350.442960 8203.178192 14890.309839 11743.288831 9130.526823 12980.272726 14937.217384 12034.286470 11326.203092 7036.632139 13576.902381 12648.627120 9074.518640 14863.611462 9354.681172 15449.733849 14600.838792 12538.826905 11508.684309 14576.495879 8147.719961 11182.660835 12267.683020 9130.311293 12454.672745 2658.841019 7497.416904 12752.420959 9443.283320 14736.587729 11011.814954 10338.621407 10527.510092 10384.242442 10714.171128 10560.259216 6540.298404 4828.181106 8133.560425 15599.081057 10196.584393 14160.525186 8640.333488 15207.754097 16249.441837 16547.190340 15058.678495 10924.728452 13070.728653 11108.830630 5616.152471 13887.198481 7097.917665 10437.373989 14845.158664 15351.220545 14126.238689 3204.024651 6353.700326 11648.516035 9498.688798 11226.641310 12997.199212 1396.674711 6272.479011 16082.131320 5253.754702 4340.439287 5263.100467 2751.613687 7753.838223 15349.918000 15343.096012 12899.048527 9285.328717 12617.028798 14548.342955 13967.887151 8777.554667 13490.081441 8753.669389 7889.953177 9116.979902 11732.339720 8332.991042 8727.066320 13009.308950 12567.612437 4862.799666 11829.820835 13255.950828 9033.887876 13571.165321 11194.797181 10157.326230 12836.567858 8727.893012 5248.604776 5928.904676 15694.536917 14933.899447 11540.373224 12408.722895 9329.268744 12845.144727 6991.169865 5245.679552 10527.104712 8274.487001 8506.181063 11417.929345 13173.349768 11894.732683 15482.778993 8108.150221 9345.340967 10904.583242 8362.250812 9490.386218 3695.474416 13122.079471 8374.832856 10814.223529 4642.580174 10482.383327 6900.484787 2991.299013 15624.068715 15497.357769 14172.988942 12662.523858 14823.374437 11536.512859 14774.573989 9682.667604 11570.983682 12560.799551 10343.214353 12049.530268 8226.152454 6981.920705 12355.872425 12780.093026 9575.737704 14996.646432 5407.596947 8370.233250 12919.473143 9535.205976 6706.386713 4587.224837 10307.827476 6592.376372 3388.117710 7329.775684 15336.756455 15531.745781 17388.191087 11524.567391 15957.604301 15330.567877 13240.549487 15301.230534 8484.449649 6250.514934 7006.579409 9286.186684 10255.781126 10213.202437 10579.037809 4301.180518 10572.096842 1759.034891 8499.498382 3589.573308 8284.802400 9978.458208 3413.631807 7365.591474 6008.668203 4790.351649 8324.756774 2868.337115 14955.951353 16284.397146 21739.848539 16050.868946 15598.048430 9956.590394 12429.904972 12617.222616 8188.347723 10147.564029 7118.875136 9947.606508 4711.833109 7261.885253 6679.711541 7648.855696 3044.476539 6164.571575 9483.252545 5334.121039 6725.476760 8531.406691 4768.056725 7581.880638 9592.658528 8369.856318 4153.594700 3780.077394 14824.797686 15621.155116 20003.468734 12914.845925 9382.280608 15664.251831 10889.997484 12221.067182 9242.176169 14193.036080 7256.651113 12230.645338 6782.202430 7924.827642 11238.310054 7568.211337 5460.651324 6786.038776 9926.462578 8333.498513 8678.963381 7749.140393 4923.923908 5162.364781 9557.323619 3039.983554 4283.504786 4050.014915 15269.302277 14428.071449 15714.277412 13563.215118 11940.026246 10662.329310 12696.940635 10739.818768 9539.652592 8494.517132 2781.651622 8772.467666 11185.543923 10839.997894 7672.875233 15693.092384 9754.402672 8331.344935 2753.063011 5377.015674 2423.899913 4439.542228 10735.600620 6245.061579 6259.504278 10940.092722 4909.788647 2252.125538 15778.511412 13779.842281 12897.100066 8319.292321 9153.814122 9296.891818 14296.712025 5082.920223 11323.200982 8565.943428 10003.538379 1665.402402 6058.583209 2047.897464 9230.169804 7708.963147 4671.535418 3268.887447 9297.683458 10014.603274 11897.571762 8045.334567 8261.467770 9950.073281 10158.958566 11353.034326 4498.293608 6913.450835 16094.781396 15185.669769 15307.534795 14568.808212 13789.724384 7803.425501 15074.915840 12322.901066 6132.852630 12662.927174 14629.029184 4499.249043 6095.246078 3603.332714 5904.514356 4594.281409 4066.215964 2972.785639 8765.954523 4797.080925 9676.251180 2566.224064 10122.424615 4945.495202 7940.789657 9826.445569 3708.014945 5617.739332 16162.237564 15427.905031 13731.244023 8986.053753 14597.446964 13933.370047 8473.889900 13086.373181 2662.393763 13649.041278 10862.069228 7067.473730 5903.867386 3415.278503 3220.473501 3480.594382 2146.728156 3105.771937 5962.052015 3383.463601 1769.951231 3916.081378 2814.674920 2972.980609 2831.342551 4549.758916 4783.491810 1114.626821 16099.022947 15930.048622 14423.828679 14269.601506 14157.166264 17550.501305 11893.889759 11520.983858 9802.640567 6719.897589 8142.612349 5251.381440 6676.977577 15878.535748 15833.403345 17144.999584 14119.544089 12149.410474 12110.835180 14545.472826 9225.296522 15832.169476 7172.783844 5458.240896 6780.117862 4059.922391 15757.814502 14337.769972 16501.955161 10541.308321 12150.708081 12358.891097 8467.425398 7130.451222 4778.074309 6401.261854 6356.359206 5125.822077 4188.891390 16185.386039 14649.443828 15582.064124 7126.109466 11223.475564 6184.043778 10836.696156 11926.879520 4686.311230 7321.555270 8474.481077 14587.915148 1993.344414 16767.709228 15736.266558 14509.360523 14576.748394 5924.327950 8893.689660 8444.558893 14751.273802 12911.515384 8883.948627 3654.979535 3220.000070 1439.459873 16872.509746 17641.897471 17134.976136 15726.259997 11654.310610 13453.849753 10414.234540 14388.214600 10569.980858 1824.069814 7807.460571 3143.022967 1664.965266 16645.233165 18436.110213 19758.101448 13257.303445 15333.210978 15874.082034 13826.743599 7797.424551 4420.264920 14180.255446 5343.367933 7456.020345 3563.362586 16588.917730 16215.529963 14935.360322 16280.580315 16589.866450 15991.908503 8679.679124 4187.784996 11686.317924 6409.285124 2729.635428 3199.684987 4583.480017 16653.947082 14481.206474 11285.173061 11567.126950 14042.086375 12878.911963 7468.456972 11907.196801 12042.501175 6424.049566 7984.217495 4127.459206 5482.287835 16708.728180 16646.506454 15267.791551 7197.084217 12011.172573 10736.266478 7579.806288 9029.951389 6574.411084 5587.602462 6940.835259 5447.566203 3873.293627 16909.522298 17549.507340 17422.746872 11655.211908 15209.084770 14033.098246 13368.126839 8746.224655 3819.901462 5335.913844 11726.669049 7012.655915 4030.623566 17188.801736 17300.798501 16786.337640 14586.942149 12386.309748 13574.946046 7184.976423 7308.679132 7212.921531 9694.524807 7671.407779 13312.489091 3802.070940 17162.883105 16647.762976 15023.942704 14510.342496 15304.263577 16636.228700 9657.087133 13129.808468 8409.105958 8939.757870 13326.499591 6126.044838 4779.976084 17045.938760 16243.813004 15489.044980 13607.725657 8271.497707 9778.795244 8164.642455 4564.473190 9969.802530 12345.408891 5368.110486 6315.022614 7064.180084 17103.201200 16302.198488 15884.211886 10801.547414 10790.850207 12480.140147 5542.901490 12087.092799 6866.276972 4349.377080 4676.030463 10663.228668 3549.257633 17160.589849 16513.336196 16005.340807 13509.018651 14944.282861 14932.612889 12060.176360 7161.110538 8647.360538 6224.014259 8375.512712 11194.961352 5459.683117 17202.127165 16049.109354 15382.709818 11320.157122 9147.579282 9965.525603 4718.898941 11894.960347 5786.016080 13726.006439 7518.317471 4820.778016 5014.786867 17353.165670 16159.473230 14700.684128 17135.734406 11746.296537 13136.556895 7245.209088 11471.404881 9567.900144 11272.048444 8387.400627 5348.147062 8050.188922 17477.094315 16486.966957 13789.448092 14414.856217 13162.955120 9787.037577 10985.865169 8543.503017 9135.704171 8712.845109 9593.414530 5735.145520 7849.599710 17420.226054 17550.715346 14774.219013 13729.056964 15226.350095 9794.870231 8220.599637 11660.406433 4379.153734 14084.398301 8189.204016 3041.802122 6453.909896 17420.291803 18451.951857 16480.660495 16909.788952 16918.851589 9513.999508 12538.079925 11480.215993 10674.777460 6939.900160 7124.520524 7094.057278 4226.159479 17321.225617 18153.665222 16850.407413 14800.924194 14608.489963 15509.440330 10433.772338 14831.283739 9510.137989 7481.011559 9062.527308 8688.726378 3865.101493 16829.649806 15763.705828 14528.547649 16044.822006 16732.523832 11718.149886 14241.699923 14332.479922 7235.411764 8431.063490 7465.351209 3713.715056 4295.071378 16540.956331 15399.803566 15486.394080 17412.510886 17859.544428 9690.765207 10839.784619 9451.136264 10957.585682 13475.516059 7569.010120 7690.203806 4710.236740 16935.898496 17180.347746 18220.900091 12384.263058 19274.737077 13986.708570 10552.832879 10295.060198 10162.444848 6645.342324 5111.024848 7555.078614 4511.050632 17615.275333 16024.277076 13807.342788 18426.136614 12229.181027 4978.812964 13997.857595 10457.760204 12198.993420 7028.674755 8815.828692 6191.329071 8289.572384 18081.069839 16981.518929 13873.114006 5879.698978 12233.241250 10556.027609 11068.403314 7396.663455 12061.032941 7525.235346 6168.454238 2034.804521 9118.073323 18198.213861 20032.252836 20607.965790 10503.511505 12834.720102 8786.382163 9936.133125 11663.139377 8692.650289 7741.795719 6632.440967 9473.424533 2467.167185 18081.538987 18839.772617 18262.877533 15102.061370 16365.798392 10270.477161 8425.718943 15743.426755 7950.034593 10147.479599 8591.574504 8361.903711 5233.458592 17907.577088 16356.454353 14814.210677 16287.796011 11286.641327 14312.441455 14028.855647 13047.135320 11756.431018 8674.942470 9664.203507 7076.605040 3887.661323 17897.364628 16891.810667 14620.932565 12434.465743 10616.594411 11369.811606 11927.846915 15167.517893 8137.358159 5698.735920 8666.796124 6857.511728 8438.341019 17963.753206 17026.818608 15801.575613 16042.983990 18591.689462 6793.934265 15589.157518 8033.871596 7529.789687 8682.187317 8227.571360 11794.896878 9129.882781 18081.545279 17869.273479 18236.099607 13626.111939 13499.883292 12029.877859 7085.723279 3700.422300 5352.237133 3036.209071 4515.139266 8966.995220 4472.317795 18263.288036 17712.171489 17954.018474 15206.704850 16683.686402 12440.899418 10710.365651 13228.309257 16470.884511 11851.421529 5542.366165 6632.484675 2574.718606 18351.435543 17277.928855 13448.757746 11850.880361 12561.858111 16620.207194 10985.914046 11223.770056 5743.792246 3952.995258 1214.209754 5322.326731 7354.262548 18136.240121 17840.310239 16893.581600 19481.749727 6602.636822 14859.339841 16241.557002 9788.850669 12079.978052 10084.402447 7330.665691 4325.192711 2850.099812 17825.304863 17208.601942 18992.896015 16917.672971 12789.955751 13576.296426 12080.816797 3361.238069 7004.959035 12695.539865 8188.605174 3128.268969 990.703901 17899.097835 15259.397000 15343.834012 15281.001504 12522.029763 11202.784703 14321.590114 9900.391863 8580.276037 8961.695056 12133.979070 7036.073327 8787.101425 18119.594425 16777.140955 14501.463931 17383.988705 16672.855721 13307.207216 11635.840138 14219.106594 11929.177984 3391.334432 11807.489434 8382.499457 2421.738205 18196.241494 19757.857974 22304.384384 15920.519779 16347.434857 14632.583634 10766.763621 10606.734345 6573.712903 7655.389297 3405.532273 12276.224080 7092.065271 18361.128994 18822.976099 20036.622251 14234.143809 16064.670447 12731.584874 10875.927188 9974.933101 6935.297744 12809.505796 12321.121389 8733.314573 6507.444677 18636.960598 18658.114947 18999.789313 13940.321467 12898.379479 16752.016169 12396.938076 10153.966927 16869.053071 11505.550641 6442.595811 5531.112487 3506.579216 18744.960134 18736.144249 19329.274020 18622.662677 18203.831874 16341.437566 11989.073952 16834.532520 11161.986043 6049.452678 9294.863187 12386.816949 2321.398972 18764.994920 17572.464755 17567.923904 15395.317469 11196.770384 9832.425590 16557.231539 15806.181194 11092.736609 12271.562526 11482.357212 8307.605759 8033.784480 18710.577606 19326.362031 19213.687835 15061.028664 15875.910450 12505.400987 16273.037674 12770.971277 10346.671963 2136.228107 7604.128799 8789.870544 3829.492704 18330.497699 21231.900587 25880.646512 8054.036478 16870.436396 13096.134192 9339.109662 6492.922019 4584.383085 16678.036772 14432.526315 1430.782788 9471.756199 18243.592661 19916.799216 23769.088279 10911.897827 15784.286708 14421.979118 16612.814038 12839.661577 5971.051394 10772.594009 10478.789346 1916.618385 10831.553304 18438.012343 16905.719504 16905.091528 13120.261786 8202.267925 17158.941516 10518.864046 9917.575468 9780.798331 14034.861747 9760.237700 12214.522966 12646.126697 18575.994525 16250.604790 13448.055916 17090.676529 12600.930729 14512.226310 9534.222330 12110.998146 9457.359830 14021.953185 8923.661446 3996.517535 4936.159371 18897.697464 16650.173052 11421.113365 15951.419214 15713.012161 8958.007940 10785.264420 13155.579565 13512.270254 12636.187849 17568.798845 5781.262210 6927.727835 19422.873031 17131.895298 12583.181205 16222.147468 9965.850648 17137.899179 10588.670982 13146.525883 12175.919916 8003.943099 18745.536026 7093.922652 5486.277243 19678.045780 19303.844326 15729.560703 17925.041202 15435.252802 10711.962017 17111.992246 10148.384112 16171.943259 6229.552355 5213.303299 8994.330476 9188.593401 19514.875234 20842.994121 19498.985133 15354.948471 12980.329322 9315.346990 12328.054085 11506.759507 17293.503531 6261.375405 13213.714148 9522.394454 5503.275310 19277.531339 18867.050849 18495.330198 18360.395145 18068.876869 16952.985340 12330.241964 10257.294820 16318.755102 14887.566266 12707.754694 14050.882588 11769.452477 19086.040044 17959.890784 17074.308034 12178.292593 15625.600800 12811.592401 16088.799890 13120.095894 12390.430884 12477.603010 7403.023308 11926.105124 7591.193923 18871.449931 18648.642298 18920.394198 17436.456417 15965.233676 14505.545637 12602.794199 11223.709204 20514.647316 13954.687426 11094.803441 2565.170502 4939.870261 18781.020403 19509.319390 20534.187633 17046.034280 12450.145309 9451.220146 13681.592883 12084.975507 16187.894808 12873.440073 8459.957709 6595.129907 11839.523835 18835.651682 18112.714634 15941.463148 15111.588589 15637.626732 17218.485185 15125.914567 16975.978212 15964.381513 14078.545343 14260.034349 8560.487716 8939.275665 18738.823646 19284.509144 19474.173165 17812.144811 16088.636949 11858.723169 13637.002161 12014.444949 11185.214152 15645.625301 7180.260899 8117.516180 5925.967735 18226.782255 19914.502143 22591.837677 15684.637326 18154.855389 20818.094114 13295.940565 15463.833074 14905.788464 11362.526186 8565.828992 12573.396992 7322.549780 17680.374287 18060.773694 21380.275161 19250.557910 11628.043755 15709.112202 19412.340663 10693.289773 13148.710567 9040.018623 8679.744586 12335.423122 5838.849361 16908.777998 19053.662988 23961.097310 11555.199349 15056.972783 15965.251669 21492.265071 9792.001805 16747.650193 13188.747782 12875.675672 7976.861945 3424.271810 16396.047172 17423.508412 24691.866332 15263.697693 10495.685636 15801.935278 17342.797799 14656.600358 18406.707270 13753.284432 9521.279274 7046.280251 16022.525918 16879.486725 14611.676055 17269.385642 10900.372229 12152.373339 14801.372447 14429.878549 15705.537280 9836.171318 5197.543614 14178.123698 2541.769375 6274.280401 18026.110343 16785.800257 18016.474277 16468.140038 12824.119867 14343.752578 9707.179159 11960.271434 14880.757723 12837.964535 13517.988959 6207.205117 11941.136566 18843.931042 21305.424074 23890.703069 15229.206049 15268.272845 11254.593459 12636.656723 11881.228339 13017.637840 13249.523514 10675.449760 3624.524162 1230.963298 18655.367622 20445.338404 20522.582196 14305.424980 16154.768183 18595.647228 13381.328512 19589.216574 10463.837985 16136.280801 17825.005461 2933.288941 7981.936515 18640.823937 19416.675013 18679.125880 10222.664130 15470.218146 14849.357260 11116.111406 15597.580014 10402.987487 14079.654762 12990.751905 11194.531612 5161.818282 18631.608523 19348.494254 19713.096722 21484.012763 9148.972217 18209.465606 14332.961328 7842.821501 12914.284519 13781.830882 7273.274278 10801.538883 2003.834021 18301.330844 19229.835586 24475.508700 12079.168928 18761.697373 13957.098907 12894.777780 15009.259424 14625.777434 13545.662889 13783.811594 10583.851533 5879.887527 18394.384536 18899.294307 24846.852483 16609.815346 17168.647495 12904.361242 15766.134794 13742.191939 14179.124184 14253.087042 7903.306164 15289.319349 4223.325413 18801.530988 20690.584692 24540.996085 17486.986792 12375.361265 10770.441594 22307.292313 14062.739720 20060.396684 16283.005008 9586.282363 7849.149261 10445.374741 18596.849193 19736.846543 21173.436649 12384.088138 19622.221815 17690.674566 15138.396737 14452.410998 20219.871136 16046.359183 13989.881063 12181.142876 7160.946661 18133.053886 17604.940973 17844.087847 11851.252819 20599.355013 15259.664514 17924.844981 13608.451829 15545.095807 13754.056995 14957.637562 9767.744159 11592.089636 17637.833116 17421.245081 17643.566895 16427.087084 16726.209225 10966.527016 13587.261267 17876.806017 20232.461878 8614.122179 5606.573097 9935.148790 9661.454570 17336.031905 17337.915085 17904.085748 17898.193903 13424.073936 15173.561099 16883.315125 17742.166604 12800.792983 18693.810280 19768.176461 8942.089390 13378.542178 17143.644803 15755.382724 14809.616611 18034.236352 11206.874984 14808.446332 19813.123946 15445.700086 16138.542103 19210.323403 17186.396153 7215.110545 9587.803544 16880.552448 12622.527886 9551.989453 13116.646172 19716.149345 13818.206090 13375.268761 14602.418747 15414.622714 14743.274334 12457.082592 19704.659263 12287.353631 16771.104115 14732.961228 15878.826514 21067.508639 20067.599993 19370.952546 19071.035859 14554.812042 16128.629746 11890.846632 9657.399145 11749.628304 5099.399085 16868.616171 17180.848197 20762.143745 13822.166985 13429.715921 22676.196753 13762.330782 14086.148047 14313.457505 20278.261304 19985.541518 3342.933936 3696.354017 16547.830105 18262.465224 22192.373270 10048.526193 16725.977641 13292.872121 15419.692007 18008.184262 13786.468042 15882.115350 7831.053215 7723.784732 4359.504690 16067.769161 16693.811590 20419.731873 14029.767366 23324.723597 16232.860810 17464.011637 18047.357789 13364.918646 9782.581615 14209.628408 18343.163788 15567.849118 15984.738875 14851.753046 16448.564588 12414.536767 15157.916760 13231.249196 19346.291402 17614.112584 17251.054482 20573.154865 16770.243717 13789.769862 7370.333987 15918.599523 16202.939905 16903.026504 12538.819332 13320.537744 18813.442846 18406.739743 19796.471678 16387.549542 11250.533947 17096.286204 19476.582657 21061.376131 15427.937722 16302.372372 17433.319760 16947.478021 17381.211588 16946.110033 20106.167819 14310.141457 12598.037486 19768.700389 21735.722423 16574.389394 17177.401055 14931.137581 15201.161460 16237.336491 16397.265819 11205.784119 16934.553994 17807.801106 17197.943563 18479.374224 18044.324657 19455.808202 16007.127730 17484.075771
</DataArray>
<DataArray type="Float64" Name="Velocity" NumberOfComponents="3" format="ascii">