<VTKFile type="PolyData">
<PolyData>
<Piece NumberOfPoints="2177" NumberOfVerts="2177" NumberOfLines="0" NumberOfStrips="0" NumberOfPolys="0">
<PointData>
<DataArray type="Float64" Name="Pressure" format="ascii">
 14538.795164 14253.409053 13696.148677 12962.384728 12128.061225 11179.647300 10123.131775 9024.018676 7887.043841 6729.620058 5604.800062 4529.218526 3555.774100 2767.715594 2212.867406 1859.238111 1628.824771 1456.686643 1307.241288 1161.374647 1006.226522 833.908823 642.592963 435.987280 221.198658 5.929639 -204.529082 -409.693957 -610.894282 -801.914143 -970.797629 -1110.360548 -1219.307375 -1299.428260 -1353.801033 -1385.879563 -1399.036665 -1396.340720 -1380.469217 -1353.704640 -1317.975164 -1274.913613 -1225.917490 -1172.200750 -1114.833907 -1054.773088 -992.881476 -929.950299 -866.736130 -804.060403 -743.099372 -686.060270 -637.014690 -600.656958 -578.579215 -569.126906 14548.124101 14221.310170 13639.102770 12974.250334 12225.939001 11186.944103 9942.486724 8803.487791 7621.194356 6410.148734 5389.235879 4402.485747 3472.993598 2700.384222 2141.267486 1801.564427 1596.301746 1441.956648 1300.773540 1157.866680 1003.765367 832.120418 641.611883 436.177109 223.330051 11.727060 -191.880779 -388.037564 -591.434624 -792.757479 -967.160999 -1108.842298 -1218.518596 -1298.911082 -1353.409253 -1385.564212 -1398.777899 -1396.127499 -1380.293640 -1353.560495 -1317.857528 -1274.818632 -1225.842127 -1172.142439 -1114.789962 -1054.739271 -992.847748 -929.887396 -866.552984 -803.475016 -741.277351 -681.311354 -627.768495 -590.457593 -569.973812 -562.065841 14573.121794 14164.603270 13316.238541 12580.934044 12323.242052 10858.049766 9179.131515 8690.650374 7323.620894 5696.182581 5153.248950 4025.666731 3382.400081 2743.830170 2101.055416 1745.426794 1559.566871 1424.815837 1293.272896 1153.945955 1001.136479 830.268068 640.639121 436.488588 225.878230 18.943451 -173.437755 -344.588042 -546.683176 -780.152292 -964.172298 -1108.311387 -1218.674903 -1299.232963 -1353.740735 -1385.860950 -1399.030922 -1396.338948 -1380.468668 -1353.704463 -1317.975082 -1274.913499 -1225.917164 -1172.199703 -1114.830501 -1054.762000 -992.845375 -929.832759 -866.353515 -802.813356 -739.069885 -672.283152 -606.532213 -570.845060 -555.104797 -550.192974 -564.469577 -547.810368 -541.309713 -519.289532 -513.213460 -509.987951 -471.218630 -469.760735 -468.454072 -428.910081 -428.507936 -428.054221 -389.849147 -389.757923 -389.585841 -353.561983 -353.562741 -353.480908 -319.863547 -319.891514 -319.838589 -288.650198 -288.685500 -288.642515 -259.830968 -259.867385 -259.828603 -233.310098 -233.345618 -233.309370 -208.983897 -209.017833 -208.983673 -186.741720 -186.773819 -186.741651 -166.467947 -166.498112 -166.467926 -148.044042 -148.072243 -148.044035 -131.350408 -131.376654 -131.350406 -116.267992 -116.292315 -116.267991 -102.679623 -102.702075 -102.679623 -90.471110 -90.491757 -90.471110 -79.532120 -79.551038 -79.532120 -69.756862 -69.774135 -69.756862 -61.044598 -61.060315 -61.044598 -53.300000 -53.314255 -53.300000 -46.433387 -46.446275 -46.433387 -40.360838 -40.372454 -40.360838 -35.004220 -35.014658 -35.004220 -30.291135 -30.300487 -30.291135 -26.154802 -26.163158 -26.154802 -22.533892 -22.541336 -22.533892 -19.372316 -19.378930 -19.372316 -16.618990 -16.624852 -16.618990 -14.227576 -14.232759 -14.227576 -12.156214 -12.160786 -12.156214 -10.367238 -10.371262 -10.367238 -8.826903 -8.830440 -8.826903 -7.505109 -7.508212 -7.505109 -6.375133 -6.377854 -6.375133 -5.413375 -5.415760 -5.413375 -4.599116 -4.601209 -4.599116 -3.914291 -3.916131 -3.914291 -3.343282 -3.344906 -3.343282 -2.872729 -2.874169 -2.872729 -2.491356 -2.492645 -2.491356 -2.189826 -2.190994 -2.189826 -1.960609 -1.961683 -1.960609 -1.797876 -1.798881 -1.797876 -1.697406 -1.698368 -1.697406 -1.656529 -1.657471 -1.656529 -1.674069 -1.675017 -1.674069 -1.750329 -1.751305 -1.750329 -1.887078 -1.888107 -1.887078 -2.087572 -2.088679 -2.087572 -2.356584 -2.357793 -2.356584 -2.700457 -2.701796 -2.700457 -3.127177 -3.128673 -3.127177 -3.646462 -3.648145 -3.646462 -4.269863 -4.271765 -4.269863 -5.010889 -5.013043 -5.010889 -5.885137 -5.887581 -5.885137 -6.910445 -6.913217 -6.910445 -8.107043 -8.110185 -8.107043 -9.497726 -9.501282 -9.497726 -11.108024 -11.112041 -11.108024 -12.966379 -12.970908 -12.966379 -15.104324 -15.109418 -15.104324 -17.556656 -17.562371 -17.556656 -20.361605 -20.367999 -20.361605 -23.560985 -23.568120 -23.560985 -27.200340 -27.208278 -27.200340 -31.329053 -31.337858 -31.329053 -36.000439 -36.010176 -36.000439 -41.271795 -41.282531 -41.271795 -47.204417 -47.216215 -47.204417 -53.863556 -53.876481 -53.863556 -61.318331 -61.332444 -61.318331 -69.641567 -69.656925 -69.641567 -78.909565 -78.926223 -78.909565 -89.201796 -89.219798 -89.201796 -100.600495 -100.619881 -100.600495 -113.190173 -113.210972 -113.190173 -127.057016 -127.079246 -127.057016 -142.288180 -142.311847 -142.288180 -158.970967 -158.996059 -158.970967 -177.191883 -177.218374 -177.191883 -197.035573 -197.063417 -197.035573 -218.583632 -218.612761 -218.583632 -241.913285 -241.943608 -241.913284 -267.095952 -267.127353 -267.095949 -294.195693 -294.228026 -294.195683 -323.267537 -323.300623 -323.267504 -354.355722 -354.389333 -354.355616 -387.491860 -387.525682 -387.491517 -422.693085 -422.726584 -422.691972 -459.960335 -459.992346 -459.956724 -499.277235 -499.304613 -499.265518 -540.611034 -540.624255 -540.573022 -583.920394 -583.889051 -583.797073 -629.186378 -629.009761 -628.786279 -676.516737 -675.850167 -675.219684 -726.700486 -724.151112 -722.475535 -779.948377 -770.491107 -766.629501 -806.867713 -791.830554 -785.393830 14879.387522 15364.413904 15913.870065 12975.030950 13209.354776 15050.816208 15955.436872 14949.433386 15637.464229 12428.785676 13507.677641 13377.027116 12960.093880 14155.391249 13099.584018 11778.937188 8182.546126 7860.094421 2815.129585 1162.719064 483.300097 114.908078 -133.957315 -325.267537 -483.623307 -620.874781 -743.382488 -854.601310 -956.249812 -1048.965239 -1132.730058 -1207.174146 -1271.794455 -1326.111145 -1369.771276 -1402.609021 -1424.670952 -1436.214811 -1437.689685 -1429.704668 -1412.991981 -1388.369205 -1356.704010 -1318.883488 -1275.789039 -1228.276597 -1177.160281 -1123.193688 -1067.031427 -1009.111841 -949.318289 -884.504172 -825.217289 -799.376046 -788.335894 -784.522673 14456.380975 14717.805338 14618.576742 12786.346682 12735.645644 14679.368115 15041.397183 14303.058204 13492.331774 11684.375702 11833.929531 10957.345795 10147.364440 9724.494368 8836.162297 7669.897530 6046.850168 4133.373970 2252.339504 1073.770072 470.837416 113.782944 -133.605257 -324.866538 -483.323405 -620.655236 -743.211177 -854.454083 -956.110499 -1048.823838 -1132.581226 -1207.016018 -1271.627667 -1325.937993 -1369.595016 -1402.433291 -1424.499343 -1436.050559 -1437.535481 -1429.562578 -1412.863432 -1388.255046 -1356.604637 -1318.799074 -1275.720078 -1228.225424 -1177.135803 -1123.226650 -1067.224485 -1009.811605 -951.669726 -893.935474 -842.658709 -812.219123 -797.352018 -791.866508 14072.763758 14244.549091 14490.751450 14286.289226 14109.687144 14073.571219 13693.194097 13009.099993 12088.006115 11195.856518 10455.289574 9644.410313 8876.865833 8158.387217 7255.309825 6072.478090 4658.272840 3160.277966 1866.281813 989.494425 453.490135 109.851951 -134.832327 -325.427446 -483.654601 -620.881334 -743.383934 -854.601639 -956.249888 -1048.965257 -1132.730063 -1207.174147 -1271.794455 -1326.111145 -1369.771276 -1402.609021 -1424.670952 -1436.214812 -1437.689688 -1429.704679 -1412.992015 -1388.369316 -1356.704371 -1318.884660 -1275.792851 -1228.288991 -1177.200574 -1123.324694 -1067.457270 -1010.498462 -953.781561 -899.996650 -854.221480 -822.438939 -804.623831 -797.456679 14615.447944 14124.949663 13094.240352 11395.027332 11249.214239 9835.659057 8565.292810 9000.803942 7306.476306 5264.001785 5585.528028 4011.258316 3590.838079 3177.656990 2203.791875 1731.908303 1549.285318 1420.094680 1291.296192 1153.033317 1000.649270 830.007736 640.567424 436.670375 226.564659 20.901661 -167.063086 -321.919545 14797.571098 14520.959034 14498.715956 15371.719610 15182.025018 12934.226049 10923.132093 13962.302686 11220.879413 11845.892838 8582.780685 14164.761012 14327.847419 13765.417768 9831.125550 15456.781302 11069.097005 13168.636681 12022.075667 15044.692677 14811.764286 12694.824907 14521.210923 11328.207165 11646.397593 10096.596624 3665.591612 5399.680044 15158.682796 15129.626025 15770.567578 10179.263235 10853.757458 10012.087075 10075.118546 11778.454848 10699.516814 12153.640487 9311.367402 11420.985346 11844.782794 10696.114341 14041.390946 11216.996746 11154.444499 12076.867397 15056.032771 8980.422731 13575.928327 14533.777922 10156.661788 13007.344891 13774.395346 11690.654355 15036.374074 12111.080168 15792.434079 16119.065513 16779.368320 12176.242492 12921.047006 7388.530502 11627.311320 11770.729981 10079.722687 10886.052875 3281.878687 11179.137433 12251.371509 12223.509322 11329.132725 12850.388465 9101.187477 9668.808267 7752.932647 11565.493397 10953.250771 8410.572531 6756.301951 10783.594724 12989.563071 8008.991623 12077.724085 9569.840642 16372.601921 15809.743663 14722.146312 13879.727668 9692.343501 14591.011107 7717.850197 4107.930399 13708.374653 4346.613703 7695.004798 13700.587657 13823.782038 13385.314877 7279.922982 5287.923163 12939.170017 10576.329893 9450.030433 12597.531178 4234.453832 10352.718318 13620.618670 6725.489349 6089.567817 4538.201355 2322.246063 6758.273150 16467.108463 14896.844097 12952.804427 10828.257295 8473.817435 11911.758574 15032.284253 7220.430547 12472.428626 8027.222592 11678.054257 8173.135873 12950.462747 6535.451085 9398.335118 12463.567021 9628.923251 7477.421849 12667.257410 12152.873425 9346.255404 11892.858002 10590.577072 7417.845132 10945.685110 7971.196044 5858.065930 8073.047885 16154.263132 14576.651666 13291.540946 8899.420393 10273.695637 12471.047882 7306.651263 7900.389245 13270.971604 8119.666597 12241.046050 10571.699045 10968.025226 10622.422539 11567.222196 7329.998585 5777.536256 12566.787938 7954.350947 7593.631201 4827.675881 11774.031837 10484.805851 12154.935705 7366.163570 8626.519403 6532.373375 5414.460448 15815.663203 14727.289801 15714.991943 12185.732442 12828.325329 11558.143207 12383.253002 11825.513739 9671.798531 12922.293756 14573.714568 14081.722805 6910.309657 6935.189092 14589.759664 12386.583349 7418.271470 13364.477010 8048.950040 5685.986519 13606.405438 11429.952552 5844.441058 8570.962872 7135.688416 5553.019097 5854.002841 8300.404109 15912.113504 16306.820453 17756.158831 13549.251969 13557.726720 10745.858526 10785.198705 13201.504789 10843.523856 5748.676336 7961.692968 10794.165739 10504.456762 13714.925837 10217.342982 2850.622466 7917.222169 5032.306301 9063.347825 5273.921069 10706.568026 14430.980531 4708.715764 10263.015105 6207.740061 3498.046719 5826.530486 3084.956194 16234.974464 16971.561078 15350.238108 15208.449208 12763.965735 9066.715122 14577.536503 12115.227007 8625.204257 12799.794585 7572.553779 6459.155968 4560.732617 5830.025358 5928.691763 6728.256922 7205.613530 9304.074493 11330.269808 3306.220619 12770.120200 7112.582732 5975.549067 9232.132181 12709.142182 6598.880267 5250.241297 1951.961295 16299.439554 16663.724603 15251.182296 11432.515942 10235.249439 10229.430714 9321.434159 12053.278621 10411.472260 12422.841818 9843.958975 12436.778193 8405.873591 8254.901043 14679.198117 5654.546741 4916.099355 5557.004397 11574.235930 10187.959020 8818.006673 4170.504767 4494.698769 5320.049970 8718.780422 5981.969215 749.734424 1821.522422 16236.139182 16894.852376 16686.442151 14177.976626 13673.359321 14206.298930 12644.328017 10421.635251 6359.772450 10555.689386 3026.140652 10254.876458 13186.722764 10261.360835 11531.312786 10533.269142 8280.263363 7871.241311 7692.450091 2479.637618 3993.759715 6860.999023 5543.315339 7767.796460 4367.066450 10361.688601 2596.021346 4488.521138 16513.218328 17480.645015 16759.436219 6746.062993 10112.196693 8014.939873 11125.071599 6021.586632 11916.845661 13563.566552 12198.702764 5598.245321 5193.638205 3260.193971 10807.068382 11717.502299 7789.688626 3038.741068 11496.238907 8660.542271 9579.121892 9310.257940 7228.450602 7638.350388 6965.356583 10358.013401 4158.833736 7555.216810 16752.014058 17774.346153 16462.704688 11250.339252 10525.220826 7564.198761 11307.662179 11201.621849 6833.214040 10834.530735 12447.242238 3902.735140 4818.631164 7355.666878 5790.588958 5809.176414 4207.661419 4057.307174 10384.805241 8210.874073 10225.983655 6628.396337 8383.471260 6334.029994 9031.571575 9280.075053 3608.025081 5512.282329 16569.881391 16748.958819 16330.433418 11737.646111 7889.908520 13427.843075 7347.985767 12063.419078 1553.550861 12825.148235 10669.408097 4517.703754 7262.244854 5652.947314 5325.496462 5146.050651 4757.924227 6205.644604 7198.598037 5775.753896 6352.785937 3248.562323 4273.816142 3516.263277 2123.854208 5041.445913 5913.625672 3888.595741 16345.033613 16281.487805 15710.665078 14087.696054 9923.096279 13117.828908 12494.123842 11727.005418 12037.235529 6099.040713 8746.895928 3999.387799 6805.682586 16364.010839 15834.615679 14455.792002 11614.583658 14561.752628 9894.679542 12029.979202 7400.650508 9994.023991 6233.592256 3115.813647 6238.758432 3832.880936 16381.474995 15010.657275 12280.844240 8853.372422 11796.676804 12566.967152 9141.006940 12451.754380 4241.319405 7690.267974 7603.539743 6794.266832 5690.979517 16269.720868 16804.206925 17513.407975 9758.866554 14934.512651 8557.355047 11898.049867 7592.206989 7075.035252 10659.758850 5492.105782 11492.163652 6176.620408 16040.961617 15929.742642 16426.621426 15507.595433 8889.328838 8976.239989 9113.482561 11806.883078 9830.520337 10055.029232 5957.254107 4774.989381 2974.240080 15822.659921 13572.594725 11810.917422 14003.652544 12765.318028 9396.641289 10723.670455 10599.116814 12123.153909 4467.494767 7517.120535 6623.905615 3220.317411 15785.399531 15100.240359 15941.803400 14369.606088 16603.860706 10660.909865 8108.510130 8731.467408 6620.833485 13819.673864 4948.275886 9449.468750 5023.344777 15935.507681 16448.401598 18352.754719 16657.882489 13702.176340 11713.160007 9073.722627 3231.808799 12783.062377 4910.993405 4693.003162 5402.891336 4396.527018 16168.746204 15699.817892 15369.767529 10975.939507 9917.421603 14244.124196 6740.188127 11932.392413 11252.002557 6771.093879 5294.595356 4387.484413 3160.939109 16412.884545 16267.103392 15407.796033 8225.099478 12758.659464 10804.552009 8441.524571 10501.729712 6340.562025 4677.403071 10649.614554 4958.845449 5424.100378 16505.961277 15137.966407 12926.410781 11331.216429 13988.012522 10074.144338 17156.664738 6869.781349 3444.888765 5131.881985 13240.912367 10215.932299 6825.968119 16486.624006 15452.184192 12204.784904 11788.690897 13744.198503 12797.774689 4960.205433 8741.741877 6662.103461 11027.314081 5971.176834 10936.933622 4253.471825 16383.194691 16443.012540 14938.553335 16942.556631 14730.692988 10831.490916 14809.668864 8246.154010 7244.971493 5193.328927 13913.031728 5565.251536 1825.011072 16259.882279 16056.207375 15381.174472 14372.055482 6568.944550 11089.886755 4520.178475 5157.996133 11463.668417 13676.616738 8138.599219 4736.097526 5528.960283 16174.850446 16194.021876 15146.284542 9165.342849 13931.949716 9005.689146 8252.972528 11871.784815 5960.649089 5620.690730 4705.758405 10777.959914 4821.301833 16191.724176 18682.533525 19294.402751 14921.774182 10466.191571 12484.840125 11752.065180 8264.232400 11356.043408 6998.923878 7739.622789 11370.252780 3442.188350 16370.227481 18502.772830 20440.158205 11411.828040 7728.748781 9795.287781 4249.549798 10044.635859 5528.371711 12056.639008 4067.036566 6673.879271 3840.130656 16849.961871 16546.225166 16142.131417 15804.896010 12367.275658 10668.726312 4159.887773 11515.447771 10554.666003 8097.991958 7560.276683 5890.989765 6191.001670 17314.286249 16475.269777 13853.482037 14885.766384 8810.640559 9727.830047 10886.471166 6975.081896 9280.425626 6967.073510 5767.924946 8848.282731 7138.004602 17536.564230 16518.675451 14110.146380 11501.538211 14410.442138 11974.844190 5421.062333 8617.494569 6202.001953 14506.845060 2305.583451 1344.990358 2824.423270 17712.571549 16611.936486 15044.200411 12948.077817 13686.518543 12392.242633 12392.046280 9040.456194 13109.612887 5786.606040 5335.425276 2906.693216 4510.609186 17792.903621 15953.199975 13275.033644 14006.786334 12467.615054 11937.714432 11010.878408 10749.777889 7505.320678 9164.041515 4636.519469 6243.595488 2724.156433 17771.236606 15943.676278 13128.490306 15351.342253 13282.109631 11066.405793 13821.270420 14267.581394 9097.564716 11417.617107 6061.225182 4635.419571 5326.907134 17911.247577 17298.729105 15190.141677 12913.094905 13421.906936 12501.078324 9978.906757 9869.128885 11744.169390 9894.770007 10089.764017 1822.037428 4059.042005 18075.849185 16960.463199 14443.822416 10673.409350 14572.574192 11262.633877 15090.345615 10610.033237 14044.929262 7694.614110 1952.610313 10243.050116 5361.740491 18047.666185 17104.878307 15440.421203 12290.220952 11876.704885 4892.391277 10591.826093 11919.437576 12133.910252 5698.590968 9787.176622 2803.803684 12846.482658 18026.918417 18218.286155 18503.497902 11430.186400 10487.713708 11701.927415 8858.670857 6798.943604 10935.362821 9192.299202 5136.937142 4578.539302 10031.073724 18055.721779 18645.302154 18970.551415 12245.907096 12529.118094 10216.202931 10677.002808 12082.227674 8426.698960 7742.346208 2481.562515 9819.481225 2837.111600 17984.358982 17059.757018 15530.769713 13773.426192 13011.036538 12216.541808 11588.727417 12630.564118 7317.098361 8713.640685 8222.818222 8681.554988 3545.403367 17798.096899 18536.268575 18133.415617 11078.133266 14052.165888 10591.752086 11054.112037 10023.190240 12538.225467 12716.054805 9329.083747 3425.058025 3439.560665 17756.725439 18867.612537 19524.310755 6932.415358 7619.823336 15509.750135 14588.280701 9479.094252 6273.588996 8264.165663 7677.412245 9442.828737 8803.834519 17847.163185 19191.842141 18456.484519 15163.981047 15564.102806 8579.850863 11912.424791 8620.413071 7952.500394 12829.031697 6617.044578 10858.450194 5042.908005 17535.920142 20717.592624 23813.535845 9429.511610 15930.482498 9377.927894 8178.583229 3763.108959 3096.485582 6551.010070 4570.902419 7862.261728 6084.600601 17072.437797 18712.954423 21598.072249 14704.075984 15531.737260 11853.477213 11028.427016 17336.781856 13195.854576 11026.253776 6192.760273 7219.643424 4924.942866 17121.118688 16935.965661 15700.893785 15982.980817 8891.827158 18115.539633 13063.080489 13852.744528 5824.771117 5744.273472 5417.837644 5298.500728 7420.428724 17527.702039 17710.514670 15659.412082 12414.855429 7709.299146 14929.244769 12938.364804 9461.937545 13924.885477 7770.096203 10967.651398 9371.495576 6014.365158 17682.384457 17231.420213 15400.884334 16012.247026 8532.732021 12308.797644 10503.594536 5868.462887 10965.976203 11446.170060 6163.183250 5770.277178 6811.871623 17538.986123 16505.845149 14756.579647 12703.320007 11085.831905 8265.990434 11467.230607 10109.603814 8984.396557 11038.256141 10032.550745 6821.590216 9692.127546 17464.396909 14961.457127 10321.178275 12514.373141 17437.439232 14113.268964 12545.113969 8590.407514 11937.638104 7519.775355 10869.214303 9962.446262 4593.031693 17549.736170 15833.445052 10903.893628 13765.278964 20115.762942 9309.850914 14368.335873 10235.706855 7328.303339 10383.873318 6179.453477 9094.483678 9559.450370 17490.983216 16179.840505 12961.563927 9866.349022 16074.429534 8537.972736 13726.654853 11585.770114 5615.042881 14213.388353 10080.282460 9949.681177 7085.035761 17114.563215 15174.589082 13603.188034 14744.793065 14632.678013 14095.565674 14551.346891 8902.851017 14172.366441 7594.208647 8270.784669 5443.206207 2738.520931 16708.108125 17619.493678 21951.883700 8208.449831 12291.316597 10411.010921 12718.278583 12619.387107 7714.821033 8115.106761 9541.290499 13583.909627 7789.525259 16841.421672 18306.548570 21591.049070 17714.082976 8801.562263 8644.432151 15842.447709 15064.704678 14404.988645 9006.591962 6822.549615 4665.324353 9339.577418 17351.508559 16978.394076 15024.755905 13752.483744 8609.857842 13846.281103 15627.447146 12440.555639 11462.186850 4395.351598 9023.359516 10409.303339 5152.468045 17641.570499 16229.083007 12053.148685 13015.642848 16082.348048 8351.181194 9115.418925 6207.909256 6059.567548 12907.207742 15846.221488 8697.876347 6204.666657 17514.345395 16820.098700 17638.519638 12336.368822 15420.449614 11689.901032 15722.055860 11407.156573 8243.170291 5895.880584 10106.755272 5590.010633 6017.964994 17542.475909 16201.027151 15021.101025 15198.571084 13650.814794 8030.415941 11572.305218 5910.805386 9648.556373 11367.120301 8154.764083 15052.288320 9601.432301 17898.012189 18772.583663 21689.721802 9728.135699 12281.169841 12720.599674 10664.411288 10886.205924 8384.346716 12827.639919 7456.441225 8638.948812 4980.596833 18184.534715 19281.932418 15471.470332 13973.146768 14122.028884 10853.872931 11842.615296 15586.896642 14033.253302 10771.363084 17615.748773 7068.915532 4849.809483 18440.643295 19935.460196 14779.232250 18364.136828 18509.545265 15180.143929 9005.827932 11680.476584 12429.674881 8805.044807 17126.414709 10733.174497 8854.169520 18297.655100 19179.668956 15116.581087 18648.176737 13182.971150 11378.109074 14697.135708 14398.058555 12607.786395 9783.022336 4467.895981 10252.747326 6942.039418 17888.981460 18094.162884 18854.416408 16882.138555 17846.956647 9595.764674 13452.774075 8831.234285 13768.994463 7369.544899 15700.588011 6231.453715 10018.139405 17812.837677 17285.896859 20385.825733 12941.746665 14895.262326 13629.284295 12581.267784 10519.661041 14487.389497 11325.744570 13353.954813 13975.644652 2259.570412 18082.422604 18251.214144 20113.459955 17660.537398 13182.293617 11390.826855 15746.422245 9936.939948 10351.220855 14687.409601 8544.326907 17064.138389 5264.592463 18419.646045 17886.183684 17287.597590 14976.838964 15450.005254 17800.889843 17029.589853 12260.443537 12294.189095 14639.965427 10399.949812 6028.324308 4577.512347 18924.959440 18507.093648 15875.974819 16222.456092 11400.112813 10340.771600 12299.817505 12835.016335 15184.115898 8326.995441 9557.870059 10570.992502 10568.514103 19072.377523 20426.410660 19823.094266 13819.059953 14595.471234 14806.797101 14407.702579 16952.913331 13790.262329 14554.551651 13376.928332 8392.527651 7476.660692 18781.156601 17828.074913 16187.758926 16477.084777 13125.230788 13139.574944 14364.609667 12252.649509 13121.998662 15969.064928 7626.148268 8298.884222 5410.967913 18364.481298 19379.256952 19037.093567 12159.856588 20334.033248 17297.844980 16551.997490 15431.312438 12643.026956 16687.899313 9695.355207 12827.895476 3457.444445 17757.260770 18318.428014 17835.478308 18180.978527 8588.297198 12722.724823 17974.989016 10083.203953 9433.874514 11399.870383 7206.591773 11736.819922 11517.452938 17686.165639 16647.832109 15202.244008 11303.323739 15563.958517 17011.090720 17312.421530 9104.120132 12681.301053 12823.342869 12119.711322 9354.101359 5988.627464 17759.739031 17262.259583 14774.921839 14006.711473 12270.514027 14403.907791 10036.097316 13544.822875 16931.298321 12696.513013 8922.889011 7624.758638 9791.387145 17479.365527 17836.160793 16914.098007 17055.870856 10653.642290 16878.528119 10384.711137 13707.978068 13119.932866 6315.521800 14912.897734 6995.684411 8257.224735 17638.720990 16077.670988 15871.224329 19903.533594 17131.355865 15297.530648 9788.440666 16596.417535 14951.116788 17239.557177 14375.963321 8671.369852 9065.315876 17615.762430 17370.887625 20034.500353 13593.601714 13625.265937 12967.679073 13413.850235 10815.384995 13200.416643 12905.139640 9568.560807 9199.056414 5352.086897 17055.197848 17705.039232 23352.882159 14196.926167 15915.215891 16583.966298 14260.932886 17182.689917 9741.716228 15105.792620 18448.095111 6088.939710 6207.266645 17114.381039 17666.579675 20303.507688 17006.270074 15727.599223 15343.055184 15984.262681 15426.211438 9763.841320 15647.026351 11933.023177 9882.276002 4193.976926 17677.145196 17738.119614 15546.023129 17295.662385 9038.265362 16283.544164 15100.700815 9838.834621 17332.786885 17257.828536 6886.260533 14247.790552 3978.592460 18437.465112 18582.391373 16241.497986 15867.136556 17069.911189 14246.942554 11391.624282 14935.415576 9811.208292 12034.381201 11062.266472 12387.736688 5030.722251 18636.881593 20180.256834 19231.865179 12697.826846 14292.189200 14494.481707 14820.916407 14413.927045 12796.109998 17498.663254 7776.782010 17022.807943 6044.103113 18311.581436 19384.175389 19019.697720 18391.394326 11347.811405 12205.192091 18117.893606 11416.402433 18174.018272 15821.154833 7476.909960 9941.350612 10290.253137 18212.556057 16755.585983 16190.051108 11057.567066 17795.023212 18674.954447 14058.929499 15822.347179 14441.431702 16924.771702 12638.292762 20820.279635 10064.839301 17949.066216 17711.046509 19076.999796 16231.331340 16763.364810 14719.908646 19271.577100 18338.739689 13516.403945 14362.737714 15836.544906 7406.266792 5939.855350 17715.880905 17934.962000 20879.695855 13742.223054 15601.051771 14240.089915 14383.352561 17819.068862 19667.556964 7582.986955 10082.357527 15584.591106 10846.333404 17880.707718 18305.692367 20358.083443 15035.921780 15395.594657 10003.395755 11468.698722 15727.976507 11474.935237 19032.620994 20759.763306 9174.427096 5893.329042 18035.894034 19606.997199 21157.501595 16686.172059 16808.032714 14176.233192 18590.640037 15446.683722 16236.277086 17163.377688 13934.438681 6686.826330 7529.853765 18011.203327 19079.917735 20346.719047 14237.537128 20045.062933 15583.788940 15081.814253 13825.874659 10446.842716 14712.700084 13251.871766 20620.037028 8805.086709 17746.234813 17444.473790 17281.265107 16923.566304 15803.490357 18166.281004 20332.307998 15263.896227 12212.180768 10652.110604 13877.610942 11152.008563 4527.054542 17554.945672 15615.337649 14797.096246 12449.582623 11702.033603 14153.584619 16383.259334 12988.389050 13133.199181 18401.059065 14132.026010 6443.551865 7468.797425 17534.201806 16625.434242 16846.115243 14764.105923 13115.840411 16771.997953 15123.179912 12330.253593 9165.721182 17604.439491 7347.980700 9502.511541 4147.627269 17368.347962 17489.820996 18985.020762 13278.853865 16636.699702 11887.121772 15933.355456 13186.212846 15014.110397 7383.290985 15115.546630 15508.998252 15010.520917 16969.733776 17478.356741 19165.528832 10818.154247 15709.698050 16511.384618 20569.731497 16702.605657 19995.858296 15784.738292 13279.264688 15353.153728 9233.289725 16388.050848 17403.661906 18575.475873 19246.199848 18746.557793 16249.696740 18448.058336 19504.128118 15192.654887 17399.206676 16801.484675 16159.994935 15475.161348 15496.056758 16570.784532 17605.024749 15498.656871 17167.892767 21413.048739 10377.409545 13645.329990 14312.128567 16333.012799 19238.108265 13874.071080 12896.013746 14879.387522 15364.413904 15913.870065 12757.523099 15025.422790 12469.513321 16164.234768 15760.603876 15175.791934 11500.916917 17141.736607 18731.408465 14217.841341
</DataArray>
<DataArray type="Float64" Name="Velocity" NumberOfComponents="3" format="ascii">