<VTKFile type="PolyData">
<PolyData>
<Piece NumberOfPoints="2177" NumberOfVerts="2177" NumberOfLines="0" NumberOfStrips="0" NumberOfPolys="0">
<PointData>
<DataArray type="Float64" Name="Pressure" format="ascii">
 14837.651253 14694.830300 14268.778776 13506.679999 12550.208857 11522.540180 10368.790553 9019.855063 7499.492719 5914.024404 4424.632355 3199.723061 2300.883930 1456.706387 319.343536 -825.010694 -1397.399861 -1453.942712 -1563.971321 -2197.663468 -3110.738814 -3725.110092 -3996.816930 -4083.376278 -4049.414702 -3931.876686 -3758.109088 -3540.424399 -3284.955572 -3005.538669 -2722.907765 -2451.465431 -2197.655896 -1963.560059 -1749.184247 -1553.572875 -1375.363395 -1213.098505 -1065.407760 -931.099826 -809.187941 -698.868612 -599.473275 -510.410602 -431.112995 -360.995777 -299.433013 -245.751068 -199.242002 -159.208193 -125.078828 -96.659425 -74.410161 -58.963849 -49.923666 -46.065510 15067.505231 14948.859956 14459.519798 13495.937037 12416.825346 11496.255891 10451.667164 9086.283866 7460.558686 5769.399189 4225.943329 2979.547090 2356.325970 1892.386371 365.326456 -1436.961193 -1880.713441 -1448.060746 -1486.989212 -3178.484981 -4256.676548 -4183.714450 -4213.556823 -4165.507565 -4083.141633 -3950.462395 -3777.615637 -3568.762481 -3310.283350 -3017.430496 -2727.483145 -2453.211976 -2198.456102 -1964.042992 -1749.548981 -1553.881233 -1375.635795 -1213.343646 -1065.631165 -931.305878 -809.380106 -699.049317 -599.643871 -510.571451 -431.263584 -361.134593 -299.556452 -245.849219 -199.284480 -159.100372 -124.538397 -95.140916 -71.515087 -56.131303 -47.884383 -44.596857 15367.406806 15245.294654 14459.526830 13281.883551 12358.563664 11862.700447 10705.513366 9260.987457 7372.258244 5347.891654 4059.642223 2353.469611 2168.913642 3673.965304 588.229983 -3513.723810 -2847.422239 -1463.698910 -1100.827460 -4174.368981 -6258.513290 -5161.552902 -4498.200056 -4266.070342 -4123.342793 -3973.006373 -3805.068828 -3624.692614 -3369.572571 -3035.012455 -2732.035621 -2454.334243 -2198.553634 -1963.840589 -1749.271772 -1553.600152 -1375.371888 -1213.101148 -1065.408582 -931.100079 -809.188012 -698.868608 -599.473188 -510.410291 -431.111954 -360.992324 -299.421573 -245.713173 -199.116567 -158.792515 -123.715872 -91.886996 -64.417498 -50.564052 -44.421167 -42.168036 -49.674745 -43.459734 -40.726657 -38.156373 -35.986189 -34.645357 -28.303788 -27.781633 -27.277540 -21.345696 -21.207596 -21.033401 -16.080170 -16.051057 -15.985756 -12.051154 -12.051664 -12.022592 -8.969966 -8.977366 -8.961329 -6.626583 -6.634445 -6.623973 -4.857415 -4.864120 -4.856626 -3.532511 -3.537838 -3.532272 -2.548574 -2.552676 -2.548502 -1.824022 -1.827127 -1.824000 -1.295003 -1.297324 -1.294997 -0.912034 -0.913751 -0.912032 -0.637153 -0.638410 -0.637152 -0.441532 -0.442445 -0.441532 -0.303503 -0.304159 -0.303503 -0.206938 -0.207406 -0.206938 -0.139957 -0.140286 -0.139957 -0.093889 -0.094120 -0.093889 -0.062476 -0.062636 -0.062476 -0.041236 -0.041345 -0.041236 -0.026996 -0.027071 -0.026996 -0.017531 -0.017581 -0.017531 -0.011292 -0.011326 -0.011292 -0.007214 -0.007237 -0.007214 -0.004572 -0.004587 -0.004572 -0.002874 -0.002883 -0.002874 -0.001792 -0.001798 -0.001792 -0.001108 -0.001112 -0.001108 -0.000680 -0.000682 -0.000680 -0.000414 -0.000415 -0.000414 -0.000250 -0.000251 -0.000250 -0.000150 -0.000150 -0.000150 -0.000089 -0.000089 -0.000089 -0.000052 -0.000053 -0.000052 -0.000031 -0.000031 -0.000031 -0.000018 -0.000018 -0.000018 -0.000010 -0.000010 -0.000010 -0.000006 -0.000006 -0.000006 -0.000003 -0.000003 -0.000003 -0.000002 -0.000002 -0.000002 -0.000001 -0.000001 -0.000001 -0.000001 -0.000001 -0.000001 -0.000000 -0.000000 -0.000000 -0.000000 -0.000000 -0.000000 0.000000 0.000000 0.000000 0.000000 0.000000 0.000000 0.000000 0.000000 0.000000 0.000001 0.000001 0.000001 0.000002 0.000002 0.000002 0.000003 0.000003 0.000003 0.000006 0.000006 0.000006 0.000010 0.000010 0.000010 0.000018 0.000018 0.000018 0.000032 0.000033 0.000032 0.000057 0.000057 0.000057 0.000098 0.000098 0.000098 0.000166 0.000167 0.000166 0.000278 0.000279 0.000278 0.000459 0.000461 0.000459 0.000746 0.000748 0.000746 0.001192 0.001196 0.001192 0.001874 0.001880 0.001874 0.002897 0.002905 0.002897 0.004398 0.004408 0.004398 0.006550 0.006564 0.006550 0.009558 0.009576 0.009558 0.013640 0.013660 0.013640 0.018986 0.019009 0.018986 0.025689 0.025710 0.025689 0.033608 0.033621 0.033608 0.042165 0.042159 0.042165 0.050023 0.049978 0.050023 0.054615 0.054501 0.054615 0.051483 0.051257 0.051483 0.033371 0.032968 0.033371 -0.010973 -0.011641 -0.010973 -0.098331 -0.099383 -0.098331 -0.252904 -0.254494 -0.252904 -0.508582 -0.510911 -0.508582 -0.911568 -0.914882 -0.911568 -1.523283 -1.527878 -1.523283 -2.423465 -2.429692 -2.423465 -3.713313 -3.721570 -3.713313 -5.518475 -5.529204 -5.518474 -7.991674 -8.005352 -7.991670 -11.314759 -11.331880 -11.314747 -15.699971 -15.721032 -15.699932 -21.390304 -21.415769 -21.390178 -28.658928 -28.689168 -28.658515 -37.807796 -37.842920 -37.806444 -49.165827 -49.205163 -49.161404 -63.087575 -63.127983 -63.073106 -79.954687 -79.985025 -79.907355 -100.186756 -100.169520 -100.031938 -124.282898 -124.091761 -123.776493 -152.961305 -152.161969 -151.306341 -187.795274 -184.697672 -182.359324 -230.986339 -219.308974 -213.745685 -256.180627 -236.575326 -227.719177 16822.584773 17821.185778 18227.258928 15003.129091 19296.129692 17596.225058 16072.265548 17955.323755 14634.553319 14873.328626 22044.357580 16230.256608 7192.699814 7467.120011 11353.053587 7483.693545 15482.304457 12185.016808 4408.932557 5320.658636 -372.419159 4046.032559 -6964.683179 -13928.905284 -10424.071595 -8852.286410 -7705.058812 -6974.211896 -6217.133948 -5312.432395 -4367.265854 -3566.304239 -3037.745338 -2775.643006 -2671.371563 -2606.985070 -2515.428686 -2381.563390 -2216.496989 -2036.141958 -1852.301209 -1671.831592 -1498.336511 -1333.694805 -1178.893917 -1034.391981 -900.269301 -776.301815 -661.986538 -556.458316 -458.124197 -361.497176 -280.212857 -246.466962 -231.905846 -226.245850 16917.058262 17110.802572 15977.913963 14326.896813 18555.409917 17485.718967 16996.933695 17382.338510 15403.259961 17019.903481 17881.431037 16004.334795 12886.256626 11419.663725 11099.601411 9691.031946 8734.962717 8186.949023 5230.548095 4108.576071 3274.675956 2415.203045 1903.345920 256.522777 -2067.230442 -3428.705082 -4173.428736 -4609.106619 -4656.022511 -4339.310523 -3810.632476 -3281.986783 -2911.281337 -2727.308399 -2655.356515 -2602.154168 -2513.956075 -2381.074108 -2216.352073 -2036.152608 -1852.391747 -1671.965158 -1498.494191 -1333.866070 -1179.072460 -1034.575637 -900.465124 -776.544390 -662.399096 -557.465247 -461.137592 -373.389564 -300.741872 -259.452315 -239.456429 -231.704397 17078.228383 17301.827470 17910.044297 18517.510343 19896.417389 18832.305315 17956.301065 17921.190496 17358.286918 16862.751232 16726.006889 16067.354785 14845.498997 13573.491056 12568.190533 11430.654686 10131.423130 8767.804552 7037.357365 5500.735694 4218.317895 3038.337663 2112.084341 1394.659240 582.985184 -459.648194 -1616.309559 -2610.744079 -3232.332298 -3415.364023 -3266.782799 -2995.266096 -2778.983006 -2675.650579 -2639.322424 -2598.924004 -2514.115148 -2381.606036 -2216.633054 -2036.207234 -1852.323111 -1671.837656 -1498.338296 -1333.696430 -1178.898391 -1034.406512 -900.316961 -776.458176 -662.499271 -558.142490 -463.585270 -380.721548 -314.366512 -270.127620 -245.799847 -235.905593 15459.835021 15257.960233 14552.416124 13495.010812 12770.181248 12899.302796 10995.139352 9630.464538 7725.365587 5143.958401 4104.148786 1338.434758 1227.187087 5284.191483 798.758753 -5347.686191 -3527.460318 -1413.932231 457.359599 -1012.849528 -4854.659850 -5293.669514 -4585.559255 -4294.171768 -4134.763616 -3979.625366 -3814.623010 -3653.910443 15498.559105 15363.724087 15368.202161 13724.045755 15466.696984 15620.781174 15747.467002 15434.757174 13412.936038 18094.439602 14793.722508 11489.972938 13286.514557 14981.820577 14635.329742 13481.877850 10863.569496 13919.229061 15085.834968 16359.111053 16232.644903 15201.182648 15416.818882 13976.967077 11357.269741 14541.804628 7760.048228 -47.518889 15494.815266 14121.806700 11858.816553 12217.138026 13239.249529 13103.290796 12207.517748 11054.486153 12246.445851 11850.637129 13690.971399 12980.758902 12304.267910 13294.149460 13860.456479 14854.589082 7364.097478 14021.229378 11044.526260 13150.607936 12290.000751 15277.777176 12796.694622 14875.158213 15463.758507 11077.451338 8016.041023 10318.359887 15518.997294 13822.007848 10374.588425 9538.659735 14483.206631 7022.673641 14777.103778 10943.463585 12893.544190 8970.184381 -96.237227 8644.563800 12028.146356 10125.937094 12083.153490 12318.086976 7494.699585 12598.828210 12519.390877 11120.210714 12855.606171 5322.794123 8813.335622 7674.888061 12679.248620 6770.948765 14963.468621 -10806.930280 15407.219454 15292.282795 15686.825672 16311.804029 6538.737318 13849.525649 12879.603501 3883.173423 13108.140662 9282.734073 14010.263508 12501.025058 12213.533240 12453.971029 2979.722961 5808.369748 14338.418373 10082.506735 8711.886809 9347.575176 4315.249801 10541.152829 13672.507007 749.053293 4183.076220 6099.348511 816.592722 9517.325261 15214.058278 16114.093944 20206.536371 14186.681792 15032.183041 12741.494218 14515.827278 9249.803857 13548.692900 10508.566655 10994.711809 9157.392430 13256.022655 7154.908917 11700.807148 13057.994915 6208.275590 9822.581642 14019.401391 11071.877208 5232.485019 11778.156497 8161.469011 10224.776700 7287.650288 3492.182918 4986.409561 6097.333599 15148.465697 15383.378527 18075.730858 14220.301660 13722.998926 13679.485992 8183.748224 4974.860779 7526.832755 9293.414175 9819.700366 12852.607833 14224.438618 13545.765440 13910.377442 11223.586594 8271.600213 11801.264061 8951.743747 8050.643616 1823.856681 8632.875811 8843.586935 8555.552334 5961.044584 9082.189120 3496.709114 3143.210948 15314.550291 15316.714815 17042.862889 14554.318586 13989.783690 12420.023909 10606.377901 12711.870960 10493.750129 12011.750143 9142.337631 15200.229568 3911.487167 10096.414299 10061.555258 10309.378156 8730.688191 9230.421646 4670.457824 6899.253404 6643.490039 7541.277706 5267.210154 3914.062217 8802.293483 2469.881032 1229.912892 3599.972035 15627.551356 15470.342740 16225.173725 16578.677874 16616.958161 15897.157893 14325.030971 13382.124964 10107.467948 6179.750828 9218.080682 17015.490358 9269.801464 13241.391732 5964.894713 1581.141577 8522.064215 5792.301332 10162.139871 3111.647599 13183.477730 8728.083422 3217.617661 4818.661928 5368.369018 2475.768723 7078.587309 775.322755 16002.249421 15508.668844 15109.328623 16125.686361 15353.531796 12858.491737 12638.230262 11154.305920 6851.797942 8329.272013 5479.145165 6851.718378 3683.932359 2382.422457 1456.283429 7844.440552 5054.014861 7601.324396 4028.997539 3675.754202 6612.319832 10890.885712 5641.173302 4079.660581 9369.418300 4120.532015 3983.025996 2243.349345 16363.438423 15813.804296 14961.635520 16124.492292 15096.350807 13937.379998 11824.866563 11615.796831 8195.982011 12539.574388 6360.815034 8987.557294 3086.999850 6747.299018 10909.973963 4153.192602 3390.965424 6016.352402 9023.857995 5822.236629 6567.348544 3169.047328 2584.109860 2613.859562 8231.213529 4266.778763 1093.419637 1680.911675 16597.452746 16412.857681 15571.179322 15433.246874 11194.826545 15319.493070 13900.939095 8457.592127 3737.005823 4705.599068 3761.985564 7871.649643 10341.010451 8416.854194 5680.142699 15333.593101 10373.365430 8994.699478 1311.179757 2735.693847 1223.818236 1521.830507 7459.363326 9763.899446 2847.846769 5594.187222 2163.204407 2704.010940 16514.770398 16546.837411 15937.716769 12421.019621 13919.229630 8731.647315 11146.497698 9091.827499 9117.920044 6359.180917 6033.128891 3697.969487 7512.846698 2723.658879 4418.467595 7418.207723 3960.298786 683.750433 6197.043373 4329.703197 4580.369444 2646.485277 7661.712428 6750.911318 7952.749939 10348.122209 1307.202464 6457.145828 16275.845491 15957.468812 15485.317363 13593.631807 13605.125232 6237.432658 15804.140676 14551.402866 6748.639142 11084.805312 12657.857156 1337.510533 7310.966086 2333.767944 4895.311631 3773.961996 4714.788706 1469.657608 11435.547848 5387.844215 8759.025152 1224.220064 12132.667975 3234.517953 4617.733620 10298.462245 1766.584489 1452.697754 16226.730387 16193.212567 17255.221186 14225.818800 14671.810410 17345.082589 10644.574081 12526.382777 3115.611937 9610.628809 9903.910226 5883.774233 3501.012114 3062.833587 1783.419718 2329.969316 4226.269398 2261.890059 2990.303134 1973.511538 2218.909336 2458.528004 1591.125591 1236.972777 2535.138169 2060.503320 1925.382171 1819.700407 16293.428813 16290.562252 16560.852077 16611.546111 13329.461771 14115.032705 11537.445980 7840.070840 5771.940354 5129.339337 6859.545756 2642.439175 9935.995235 16432.111734 16099.624845 15821.881354 13170.928112 16259.224892 10268.015923 14429.160932 11627.391069 10327.045719 11111.400948 4011.249434 690.213149 1536.238008 16672.663862 16481.401439 16668.528300 12064.174101 14001.192606 11385.721503 8308.944519 7108.481295 4211.513629 3808.206140 1609.425016 2891.220881 2533.824692 16779.855360 15786.490313 14843.797975 14031.917265 15216.998389 6154.289091 11569.559787 9023.704015 3763.123110 3206.464228 7873.176892 10594.104193 2354.841414 16886.298259 16923.165928 16774.436955 16775.600571 6087.149670 7619.636326 4076.407772 15161.674987 7865.106506 5676.686741 1762.703044 2769.001676 1888.923903 17077.885350 17294.001268 16853.819917 15088.499742 10314.044379 12431.094819 12018.265905 8193.370950 5658.726407 3070.712817 4683.217116 3768.720446 1432.763153 17205.855677 17011.658278 17446.197703 14639.188908 14180.353485 15705.958209 11920.408014 7786.218720 399.297950 11533.600891 6382.309110 4452.168018 4560.505921 17044.500168 16764.733050 17951.596854 16931.273364 15829.681023 12224.304321 14671.342746 925.386997 8153.548492 2437.990546 2750.141507 1931.052406 3410.861797 16806.012087 16379.940203 16706.074243 13630.971577 17871.398364 13495.347211 11065.342998 5015.265003 10131.045057 1720.020607 5687.336709 2172.092211 2530.359794 16790.486929 16725.751151 16792.258055 12173.913936 14637.514369 11780.305109 7377.632842 11360.049559 7444.832713 4726.549284 7824.991285 6352.018728 4771.017346 16951.775765 17229.283576 16546.348763 13315.853252 15565.449577 13459.211732 14298.322447 4984.301273 3375.123814 2307.144042 6696.886532 7722.163206 3921.737333 17104.559427 17486.499731 17629.006081 12595.324570 11290.452177 13212.614712 9282.226012 14117.469702 8126.470445 8825.549797 1083.128536 8243.748441 75.654142 17123.704171 17408.650018 17937.469645 16236.226618 14939.833294 17270.466784 9196.555677 9322.084329 11596.850772 4959.826845 13215.926221 4922.816352 2112.285289 17143.649412 17590.926492 18680.231410 16569.671685 10365.756807 10903.159356 7109.311591 3063.137139 6100.793387 16348.155155 5231.867624 7326.114471 2898.769247 17165.695430 17101.646872 16867.651905 11894.655703 16195.212153 15436.863943 8035.505568 16608.818532 5846.174195 4644.264481 6278.640656 9755.430616 3725.556631 17151.859547 16736.460874 15985.217309 13662.160641 15323.508895 16095.696548 15623.950088 12833.446377 8278.496119 2784.336048 5907.341867 8212.662866 2915.244035 17206.292923 16558.202412 15733.630935 9896.794167 10847.626629 11911.574611 3389.498759 13778.366659 8030.443667 16488.025489 7661.967768 6293.168649 1775.461390 17425.634948 17173.701458 16563.887932 16470.655359 14187.908608 14773.724733 4694.740690 15008.229234 8436.621035 6598.628550 2839.062671 1473.166106 3494.469117 17415.406474 17355.806870 16605.040574 13507.696768 12126.503135 15233.042683 15046.135492 8572.254011 5184.161930 4942.642558 9073.851153 10940.655217 4151.525531 17131.957077 17758.388168 18757.369660 17057.383536 16029.700810 10511.544802 3545.373359 10302.616247 5781.616080 16669.326364 4271.978863 7045.549764 1529.632149 17007.582108 17617.464638 18736.447985 16310.246262 13659.760487 12253.829107 10032.530920 9374.424525 16378.220463 7807.807877 2491.289527 3383.551758 -469.553462 17188.885329 18179.254011 18735.536936 19878.417758 14597.021836 14889.016496 12755.628005 13198.144790 11287.759690 9749.186512 8862.552919 6105.729132 7142.221540 17178.301797 18779.474884 20211.198562 18286.488296 15488.916744 15132.073914 14096.574110 14657.367621 10013.905319 15411.187264 2195.072187 3270.365587 6171.685054 17007.023443 18314.580768 19853.623623 16219.460747 19146.913833 15019.445444 15151.844990 18321.937592 17802.625011 16336.845011 7980.504649 2782.051307 -938.334119 17009.990847 17332.159240 18061.731270 12980.827169 16488.477598 17336.443539 15775.921769 16655.535519 14785.037574 4604.069863 7552.724386 6591.978124 3122.485364 17218.912256 17233.148382 17500.622475 17974.010730 20075.650509 10957.863259 18784.767300 11704.599908 15750.290624 2601.796293 7736.441523 6860.338859 9362.431393 17615.831432 18603.684815 19127.798558 15543.390261 16701.697112 16772.966131 12397.487664 12185.546469 10936.478884 10301.745931 10104.192466 8061.701775 8663.476650 17904.498676 19392.193641 19755.423774 13027.466530 15052.156324 16272.320991 12356.280894 8677.332885 12206.781595 8291.849068 4515.995549 11703.787618 1416.182430 17949.306622 18712.218604 18917.408545 16351.700155 20567.562949 16013.544519 12398.699448 15940.540516 14332.209473 7189.237533 6466.896335 5406.534557 1194.161541 17786.005342 18268.354115 18589.501618 19512.849862 18631.636222 18202.078550 15984.566831 18067.777181 14123.995763 9738.853426 6869.837174 3046.028254 2165.961550 17673.334924 18285.195194 19578.670280 18982.304453 15177.045055 16862.878522 15931.010658 14297.804652 6932.242924 8381.647720 3664.008180 5176.663440 7935.531924 17836.436341 18299.433488 21350.928918 18554.176536 18898.081042 17919.142545 13104.957598 8471.193949 8230.120780 13087.066744 2108.278908 6914.318255 4224.908848 18145.553438 17661.459694 17391.087877 20755.763108 18948.264855 12976.254599 4677.854712 4565.970012 12221.627038 5905.592970 15192.406827 8995.888212 3303.107160 18367.768422 18166.725632 16179.294674 21961.934148 19014.491836 16242.941457 19599.214523 16989.169105 14240.573441 13386.819042 6515.506708 3268.363598 1804.933775 18350.958207 18591.205454 17949.701068 22115.409498 20235.738940 18896.296439 13648.676587 13123.774382 6166.016666 4459.765579 5878.923949 5745.929339 5635.389323 18072.123310 17523.811647 17573.387923 18857.632484 18670.754203 22752.349056 18680.814027 11114.333077 9084.182655 11527.293855 14038.458458 6256.466598 8813.297165 17731.939119 16863.955858 17746.483497 20755.774108 21672.019167 17232.235314 16373.670522 4707.371061 10730.934500 13545.043528 7434.897725 4439.651874 3784.658045 17687.774573 17858.931756 19470.827048 19563.653556 21100.682307 16813.913632 16537.370854 8017.453640 9501.562896 14019.881910 6234.765928 8519.607219 6712.571539 17990.248821 17709.732065 19219.611475 23476.362512 21402.563786 20352.066292 17646.999996 21465.564759 18943.669953 5646.788642 11530.200384 7800.264420 2962.082008 18710.805530 19444.887764 20017.272067 21976.395724 18711.208165 19003.132572 17471.838808 18299.213483 10437.478530 10283.007175 7386.629970 11322.159447 8373.705562 19284.234694 20392.752044 21387.656215 22623.752221 17443.558725 20955.911178 19609.269204 15808.409528 12824.250416 16863.263969 9423.865598 4638.672335 3521.630101 19585.904346 19914.799599 21532.113196 22854.912619 21539.706119 18887.780540 18218.640032 13717.540362 14237.052346 9738.282462 9812.973789 3458.409193 2663.212664 20257.625446 21714.271509 24776.953768 22064.602391 19930.006461 21182.083098 19667.563959 18710.741800 15308.591354 14088.200490 12424.690145 13978.709508 1170.938958 20963.800816 21802.704091 22000.917617 24942.157838 21586.754675 11759.196952 18115.973813 15293.581370 12967.886744 8669.072259 10193.316153 5586.679094 14753.763817 21188.682910 21367.606869 21762.282040 24100.475811 25562.746885 22669.427777 17380.947123 22737.259897 12765.387690 7298.735519 9103.569554 11920.960737 3685.279717 21481.413596 22801.810692 24150.885538 21536.126495 21450.623728 19174.513349 15358.263226 14204.534505 5256.853909 15649.513411 12780.984552 3589.037445 8768.053896 21885.741912 23728.883632 25721.314825 21294.002865 18672.393943 19634.068523 17880.995158 12168.130153 10047.019489 7598.130846 10777.758751 4222.196939 6348.570812 22013.702308 22592.773673 24067.982702 23356.820651 18248.879675 20614.038296 14672.392542 10697.730554 7556.950161 13320.370481 8146.958363 14770.306473 7067.716982 21921.439058 22403.303261 23702.837222 22950.659787 22896.250129 20394.001818 7950.427172 7819.983768 7390.914651 12056.142474 9829.042397 8715.954473 7713.964081 21973.613896 22232.241843 23791.167649 20166.828822 22063.231089 18800.349283 13044.171196 14652.073127 17481.483526 12088.751281 14511.789854 4082.477070 3540.128930 22169.616127 23223.271398 25523.672142 24477.837023 20097.617270 20912.812374 12047.867928 18535.850701 13282.981308 9191.317938 13190.150593 8526.251360 7317.485737 22298.174421 23570.089589 27132.311256 25249.586106 22964.942708 12406.624893 18547.380086 14956.280558 15719.200615 10159.190997 10632.904532 11933.234162 4367.846339 22270.219625 21801.186925 24679.400948 21631.899501 21579.090338 8447.764778 18270.915569 14806.007604 13946.281260 9037.014556 12230.792839 7009.048711 4070.952107 22667.012660 24210.927193 27003.716995 24985.607047 24992.366449 21036.302922 8369.370596 22710.402028 15440.759942 11875.675800 13793.473099 8463.813837 -4675.290546 23193.346164 23491.549783 23976.196339 23384.875670 21426.365116 16756.717507 11466.123417 14489.269591 10444.119730 16250.899920 4262.486109 16207.152968 17119.990320 23517.152164 24527.389402 25268.289088 23076.338220 23209.210971 20455.900888 19221.527846 19613.828257 14095.196764 12722.656012 9431.078865 7847.589978 7239.941120 23578.622055 24579.242193 25701.073770 21212.852006 21398.828208 16014.436209 13230.111486 20886.938223 12788.874507 12802.388025 12218.096652 7107.449976 11920.812365 23237.517403 22494.138874 23682.848249 25553.501778 15221.009495 21391.007455 19987.967264 19228.208764 21327.249455 21534.104735 13264.109100 7086.923074 9999.918208 23354.805502 24251.678318 25492.792117 22176.933809 18061.786291 13542.678819 16497.685647 20587.734680 17315.628141 16697.624238 5365.183088 5450.118720 -4581.247496 23755.552081 24806.351253 25711.432094 23964.581285 23287.315395 22408.676817 18664.026152 16817.698374 8980.650168 18073.971029 10349.008810 6797.544051 6542.189651 23931.922675 24552.032023 25502.660894 24287.968331 17548.966786 19455.483892 12589.345950 14439.269689 10953.216944 8715.200388 6960.754806 11919.175843 8586.558467 24325.495863 25847.857477 26322.777002 17457.887179 20060.915625 19457.436963 16234.435246 5412.357136 20184.834882 15531.611772 13742.056863 2319.858482 2361.103870 24603.479773 23724.858099 19992.504557 23168.566517 18073.910091 19138.826112 21833.676660 14217.872396 23530.315474 23264.993414 6273.649553 16890.405978 17697.069155 24649.073515 24239.685163 23312.308551 16739.012403 16374.776790 20270.199454 19150.681227 18501.384092 19082.724005 10074.815565 22671.083874 5699.119242 4312.259247 24624.102636 24339.987623 25367.155643 19810.471177 18432.708436 14939.055177 9871.143205 16302.923217 16565.227199 18661.838613 9877.350480 7669.700360 12482.163691 24394.456886 23796.666144 23708.175230 24472.380393 17993.328821 18118.482634 17952.905518 4362.354983 20060.641967 10771.792602 7527.869406 2109.395845 1863.377375 24479.654537 20896.063495 18068.630629 22786.825036 17427.621844 18832.136187 20292.972738 15575.308661 9483.564376 18981.414980 15774.716608 4529.503532 8368.115344 25085.695255 25238.760503 26343.053668 21318.826051 20408.784941 21612.798216 17197.721163 17981.184951 11474.986886 17510.612134 9876.850326 5702.144623 17752.305731 25159.226010 23558.165228 22002.905120 23147.248572 19002.483464 20687.183781 18980.296844 7410.002456 15588.898947 16782.655980 16386.455301 10641.891979 -10629.961159 24637.596228 24899.316014 25038.400099 22858.364662 20249.753588 20041.731968 20481.222450 24281.328399 18420.681511 13824.989754 13219.342503 13814.775658 2188.682327 24124.484635 23479.706628 24666.744259 22726.661364 22185.222741 17453.780146 17289.944345 20154.224823 20805.248903 18074.080454 8462.431490 18731.360086 12291.470343 23714.191271 25596.194170 31169.876689 22025.802413 23005.756248 18758.676449 15778.249400 22215.378928 22023.065261 25550.916984 8188.956528 10109.322487 15190.360162 23427.203472 25699.734005 25923.455697 25854.706322 22963.197651 15456.655074 25511.183688 15714.920851 21713.326755 15092.657944 20716.629236 15830.038550 10136.598785 23062.721286 23774.444817 24399.432907 21353.773522 16019.690840 18449.725803 13233.678144 13730.358333 13491.462264 14110.351672 9392.260711 14394.600912 2002.110412 22496.460628 19795.152471 17680.187185 17454.570733 16994.666050 14742.626746 16525.896905 13462.521251 18372.861891 13891.335372 13114.017456 6805.890777 7627.929117 22224.211481 19997.213759 17297.048149 22816.714840 24061.922299 16426.768081 17113.199968 18882.764493 14921.646846 26917.778610 26620.511039 10490.698667 5093.872637 22441.596262 23080.650305 22513.117360 26694.683597 22561.807326 23450.355915 18127.771793 22109.477225 15542.251008 19305.524218 14385.449287 11090.693090 7050.595100 23023.628441 24084.009052 25677.581050 23975.585774 16782.246187 13384.770850 17418.375658 16171.093761 9807.300541 17030.958690 17514.521177 17695.912094 3307.365793 23172.359728 24122.081532 28108.866685 25680.073014 20524.865242 20133.011252 17405.125088 4256.390766 20916.713280 13038.573741 17372.696006 9071.775284 1962.630736 22746.509994 22693.874577 16838.575448 21499.024312 24484.002472 19371.544711 27964.290779 22772.647301 18515.891298 16102.675696 8675.055048 13622.469973 9849.930441 21235.959426 21000.108475 23173.877006 15097.630002 23655.307917 24082.015273 16300.150975 17745.780609 18012.963259 16438.513366 15508.848964 12233.208215 11906.553796 19472.335482 18198.738284 26321.235525 18396.890233 17187.938348 22710.095518 24619.642844 13154.705447 25804.435439 18566.965547 21808.266395 18568.421965 20553.137767 18354.111947 16139.266397 17966.346905 14456.194564 24063.794109 24613.892717 20116.035240 7637.770100 10680.776366 21427.016596 16365.198345 19169.722475 17676.390930 17778.179615 22083.373338 28005.622646 15540.061926 17959.440789 10522.714938 15862.475609 24814.083597 19582.714956 21088.916807 18605.864634 19974.734360 22215.078295 17087.562390 21199.444005 24450.662106 19950.827823 21837.841445 21083.814652 22719.895964 18821.262875 15393.217039 23097.869782 21475.141398 14626.784757 15733.694755 16822.584773 17821.185778 18227.258928 20288.474469 25020.052117 20853.246010 17339.639931 20760.505410 18939.579576 23319.255526 13187.256809 15564.885524 17814.141376
</DataArray>
<DataArray type="Float64" Name="Velocity" NumberOfComponents="3" format="ascii">