<VTKFile type="PolyData">
<PolyData>
<Piece NumberOfPoints="2177" NumberOfVerts="2177" NumberOfLines="0" NumberOfStrips="0" NumberOfPolys="0">
<PointData>
<DataArray type="Float64" Name="Pressure" format="ascii">
 14205.552769 13992.657468 13540.901536 12868.699967 12041.817381 11133.783165 10145.156618 9036.646943 7809.863198 6491.584197 5121.891793 3784.983762 2621.563114 1705.565021 1009.755039 488.225186 102.718812 -184.915103 -408.255844 -591.681228 -751.219093 -896.832495 -1034.101560 -1165.335454 -1290.540329 -1408.531820 -1518.293408 -1620.191421 -1714.692140 -1798.131865 -1863.936073 -1907.894761 -1928.914348 -1927.820731 -1906.533630 -1867.577882 -1813.756662 -1747.912122 -1672.753124 -1590.742492 -1504.036003 -1414.462850 -1323.536094 -1232.481954 -1142.278571 -1053.697530 -967.344873 -883.703843 -803.193711 -726.291862 -653.855696 -587.850748 -532.224371 -491.528912 -466.980112 -456.460374 14246.867864 14015.816150 13541.951383 12870.701709 12054.265149 11198.719354 10202.439583 8971.521865 7707.838093 6421.113734 5023.402580 3604.042809 2439.312082 1612.037466 984.804462 481.142568 97.301887 -188.758563 -410.380821 -592.668597 -751.613663 -896.914464 -1033.917420 -1164.739400 -1289.137260 -1405.455202 -1511.995167 -1609.657207 -1705.302441 -1793.641875 -1862.063524 -1907.026020 -1928.396064 -1927.441790 -1906.230657 -1867.332305 -1813.561729 -1747.763156 -1672.645135 -1590.670000 -1503.993399 -1414.444780 -1323.537691 -1232.498843 -1142.306479 -1053.730882 -967.372324 -883.694004 -803.049831 -725.714350 -651.957233 -582.851558 -522.542023 -481.089496 -458.408894 -449.566736 14350.558093 14068.548862 13273.656980 12260.699361 11667.958174 10946.004180 10312.760290 8439.212955 7470.470474 6363.226127 4892.740434 3155.438163 1978.782015 1416.642900 939.023822 472.944904 91.627675 -193.125135 -412.903687 -593.880061 -752.114821 -897.034321 -1033.724325 -1164.075811 -1287.525449 -1401.692559 -1502.916272 -1588.765145 -1684.223529 -1787.804377 -1860.767320 -1906.907693 -1928.607322 -1927.725141 -1906.503856 -1867.568604 -1813.753770 -1747.911220 -1672.752840 -1590.742395 -1504.035944 -1414.462739 -1323.535757 -1232.480860 -1142.275004 -1053.685883 -967.306849 -883.579715 -802.788607 -724.968121 -649.568902 -573.135097 -500.036189 -460.952658 -443.652658 -438.013088 -455.036950 -436.931761 -429.642228 -409.624653 -403.080499 -399.469178 -363.036143 -361.463902 -360.024483 -323.377296 -322.949435 -322.447175 -287.783949 -287.691046 -287.498483 -255.576535 -255.581113 -255.488848 -226.412735 -226.444784 -226.385806 -200.057640 -200.095914 -200.049370 -176.307681 -176.345720 -176.305141 -154.970312 -155.006188 -154.969532 -135.859300 -135.892494 -135.859061 -118.794478 -118.824916 -118.794405 -103.602596 -103.630352 -103.602574 -90.118268 -90.143470 -90.118261 -78.184744 -78.207537 -78.184741 -67.654439 -67.674981 -67.654439 -58.389255 -58.407702 -58.389254 -50.260686 -50.277197 -50.260686 -43.149789 -43.164517 -43.149789 -36.947003 -36.960097 -36.947003 -31.551880 -31.563483 -31.551880 -26.872729 -26.882979 -26.872729 -22.826212 -22.835237 -22.826212 -19.336887 -19.344808 -19.336887 -16.336737 -16.343667 -16.336737 -13.764674 -13.770717 -13.764674 -11.566048 -11.571301 -11.566048 -9.692150 -9.696703 -9.692150 -8.099736 -8.103669 -8.099736 -6.750553 -6.753940 -6.750553 -5.610894 -5.613801 -5.610894 -4.651170 -4.653659 -4.651170 -3.845510 -3.847634 -3.845510 -3.171381 -3.173189 -3.171381 -2.609241 -2.610776 -2.609241 -2.142217 -2.143517 -2.142217 -1.755808 -1.756909 -1.755808 -1.437623 -1.438553 -1.437623 -1.177133 -1.177920 -1.177133 -0.965464 -0.966132 -0.965464 -0.795206 -0.795775 -0.795206 -0.660247 -0.660736 -0.660247 -0.555635 -0.556061 -0.555635 -0.477462 -0.477840 -0.477462 -0.422764 -0.423108 -0.422764 -0.389451 -0.389774 -0.389451 -0.376249 -0.376565 -0.376249 -0.382672 -0.382992 -0.382672 -0.409001 -0.409338 -0.409001 -0.456294 -0.456661 -0.456294 -0.526405 -0.526816 -0.526405 -0.622033 -0.622502 -0.622033 -0.746779 -0.747322 -0.746779 -0.905229 -0.905863 -0.905229 -1.103053 -1.103799 -1.103053 -1.347130 -1.348009 -1.347130 -1.645684 -1.646720 -1.645684 -2.008444 -2.009664 -2.008444 -2.446828 -2.448264 -2.446828 -2.974144 -2.975829 -2.974144 -3.605807 -3.607780 -3.605807 -4.359582 -4.361885 -4.359582 -5.255843 -5.258523 -5.255843 -6.317849 -6.320957 -6.317849 -7.572032 -7.575624 -7.572032 -9.048303 -9.052442 -9.048303 -10.780368 -10.785120 -10.780368 -12.806043 -12.811480 -12.806043 -15.167578 -15.173778 -15.167578 -17.911973 -17.919018 -17.911973 -21.091284 -21.099261 -21.091284 -24.762913 -24.771914 -24.762913 -28.989867 -28.999988 -28.989867 -33.840987 -33.852325 -33.840987 -39.391126 -39.403782 -39.391126 -45.721270 -45.735346 -45.721270 -52.918592 -52.934188 -52.918592 -61.076416 -61.093632 -61.076416 -70.294089 -70.313021 -70.294089 -80.676738 -80.697476 -80.676738 -92.334900 -92.357527 -92.334900 -105.384013 -105.408600 -105.384013 -119.943747 -119.970351 -119.943747 -136.137168 -136.165833 -136.137167 -154.089726 -154.120475 -154.089726 -173.928049 -173.960883 -173.928048 -195.778539 -195.813432 -195.778535 -219.765772 -219.802668 -219.765759 -246.010695 -246.049499 -246.010654 -274.628633 -274.669194 -274.628502 -305.727130 -305.769186 -305.726705 -339.403676 -339.446696 -339.402295 -375.743519 -375.786184 -375.739034 -414.818122 -414.856644 -414.803554 -456.686095 -456.708735 -456.638783 -501.402564 -501.371557 -501.248929 -549.057375 -548.847443 -548.558457 -599.905149 -599.087810 -598.286271 -655.035497 -651.897909 -649.757090 -715.143499 -703.467909 -698.497142 -746.369624 -727.556410 -719.378846 15963.571570 15961.707013 16872.831156 18208.825994 16989.371474 18734.947113 15509.075166 21283.262351 19062.257583 17464.640737 17056.590909 13819.878181 18037.437054 14975.906908 16844.409916 15333.563910 20699.332605 12799.509451 14887.125725 9016.022178 10275.813245 16489.270866 13284.508217 -48.483937 -1417.791663 -1555.448208 -1641.493584 -1707.753438 -1759.285014 -1798.850159 -1828.114639 -1848.033788 -1859.098782 -1861.527862 -1855.416115 -1840.846488 -1817.964847 -1787.023651 -1748.400032 -1702.594576 -1650.216872 -1591.963187 -1528.590669 -1460.891362 -1389.668129 -1315.713293 -1239.788700 -1162.601037 -1084.751802 -1006.589537 -927.789367 -844.265760 -769.325591 -737.013498 -723.152063 -718.202597 15734.627762 16018.743824 17839.551161 20399.832109 18336.837730 16816.365263 14698.379686 15760.247539 16441.808881 17065.601477 15773.092417 14268.955225 14737.757561 13996.964499 13561.852837 12201.895943 10930.034809 8780.644437 6790.211774 4775.712608 3441.877349 1837.990251 -65.937971 -1113.598911 -1433.780647 -1555.296085 -1641.210830 -1707.524034 -1759.095763 -1798.686136 -1827.964931 -1847.891137 -1858.958981 -1861.389125 -1855.278448 -1840.711095 -1817.833613 -1786.898721 -1748.283496 -1702.488260 -1650.122215 -1591.881204 -1528.522012 -1460.836517 -1389.628024 -1315.691116 -1239.795675 -1162.675193 -1085.019627 -1007.478258 -930.710973 -855.950438 -790.592363 -752.159265 -733.400043 -726.378237 15381.339784 15643.730174 16133.664233 16885.367825 16735.800878 16143.952691 15350.609053 15586.478518 15938.485323 15469.284736 14394.065211 13449.935517 12893.370587 12328.760295 11458.595954 10118.182392 8399.613685 6436.640358 4431.765122 2554.231593 1030.147779 -126.934953 -880.690708 -1258.159651 -1440.861842 -1555.918722 -1641.523259 -1707.756544 -1759.285401 -1798.850211 -1828.114646 -1848.033789 -1859.098782 -1861.527862 -1855.416115 -1840.846488 -1817.964848 -1787.023653 -1748.400036 -1702.594589 -1650.216914 -1591.963322 -1528.591109 -1460.892792 -1389.672785 -1315.728453 -1239.838058 -1162.761747 -1085.274928 -1008.295321 -933.286185 -863.395766 -804.703265 -764.301405 -741.732143 -732.615834 14470.729654 14122.463431 12919.583407 11393.320314 10677.669818 9926.633778 10116.138783 7785.918609 7643.302874 6607.884833 4991.971116 2950.829282 1853.412206 1397.786831 929.134471 469.213119 88.973863 -195.046018 -414.028897 -594.464892 -752.396755 -897.153060 -1033.736300 -1163.966470 -1287.178657 -1400.741624 -1499.851581 -1577.985596 14881.144076 14883.365131 14934.420765 14781.776227 14303.595908 14185.620794 15914.089644 15784.803793 9586.316162 14649.452665 11934.139165 13386.104170 13165.226641 14832.297236 12452.026202 14772.050892 10593.985784 13154.872899 12854.365335 12961.786909 14180.997848 12908.760093 11759.108475 10516.491520 8339.007967 11628.863719 5181.863628 3851.780579 15326.135698 15825.328994 17682.210111 10281.964513 12910.814866 13917.702574 11222.488717 13850.601036 12569.860978 8077.142874 11806.736563 12023.324093 13048.093768 13028.252137 8850.837032 14320.809891 10836.296583 12255.168068 15300.337505 12046.919017 13616.831182 10960.097521 13022.911741 14807.157990 14509.914947 14060.608178 13583.894420 8698.418189 15566.023073 15631.001846 15885.369860 11216.814016 13928.451427 12266.695236 11252.430430 12490.160237 15262.650108 11449.829387 4565.854196 8972.670088 14266.375898 10104.147994 12358.777367 13581.942976 8654.339333 12940.408301 10182.138402 10515.509714 13536.900769 7064.245104 7255.406657 9186.896881 14047.329758 10071.205500 16993.537376 9025.682502 15464.178326 14981.246958 13692.986334 13575.000523 9190.380866 13404.721314 10492.666376 7032.833626 14623.130565 7766.030050 9991.618420 12474.118913 12568.181704 11980.831886 6298.883037 8575.213678 14433.158130 9871.271759 9545.223350 12078.530376 969.258703 13084.869798 12036.010195 4895.653449 6139.261121 5301.277592 2970.939164 6718.140221 15112.730985 14382.671848 13977.582520 13963.647670 12925.805237 11837.483229 15107.284395 11277.916442 11234.194579 9003.111027 9461.654455 10208.154967 10818.798858 7566.170417 6692.282323 8345.868020 10086.100691 7085.284036 14405.536943 12677.418108 8984.069104 12030.578866 7059.612799 9783.503032 10923.876363 5234.272121 6267.836246 4762.567227 15123.459394 14216.532954 14617.447756 13608.242843 11612.555982 12873.844801 6871.754954 8278.525140 12790.811793 6962.796401 11751.014550 11972.066336 12819.260523 14161.086219 13566.018423 5927.862258 7482.482929 11481.371833 8588.527790 8587.333745 5607.770936 10442.784560 11472.577659 12048.609733 6273.417261 8321.655505 6616.253836 3588.564714 15506.187766 15662.113961 17311.319201 13081.805000 12067.068501 13935.931981 12303.915956 10606.095929 10796.417302 11412.306349 11395.582794 14496.137215 10472.887667 4700.369470 13765.806542 11607.287478 8952.608278 14530.342526 6509.490467 8002.355404 12128.314750 10464.390381 7086.060197 4502.132591 7954.449772 6720.498203 3007.491211 8347.067363 15722.035444 16315.983477 18325.037273 14288.911428 15864.481091 14254.504162 11955.730062 13656.392203 8740.640257 5635.932207 9566.605049 9665.777025 9372.958505 13451.893196 9897.992015 6321.125830 11107.742594 3484.787753 8445.933653 2252.036879 6838.179704 8517.649926 5286.927990 6033.992157 4716.912814 4266.600171 7192.277457 2401.627593 15831.394112 15785.958599 16481.618301 12976.829177 13862.168826 10042.015253 14471.374277 11941.760662 5979.919617 13367.759313 3698.448616 7461.423719 7664.094883 4521.863562 5698.584604 7632.997744 5810.571149 5945.715024 11007.968541 6193.205063 10072.420729 9815.343227 7284.868689 7376.983185 12323.201130 7771.666509 5707.861799 3177.065465 15954.796336 15497.642198 16079.413880 12707.319199 13441.781004 13004.312953 13520.605014 12678.014086 9275.593245 14698.655001 10329.887679 12123.843051 8554.140851 8439.892890 12680.705457 4328.356048 4560.072560 6129.892159 12161.638467 7340.300520 7265.937233 5829.658511 5362.263364 6422.676570 9041.369646 5035.409712 6906.701166 2315.869977 15910.150487 16294.530350 16464.481633 13510.488607 12382.560379 13702.023724 13837.778576 12379.514740 8191.270554 8397.380660 6039.755780 10941.086085 11504.119881 10933.863343 9385.356338 13118.677647 14208.750227 9864.657872 4021.556727 3922.859726 3177.352005 4260.220604 9908.265156 5458.184864 3933.932451 8976.191958 2477.115068 4032.356014 15864.935445 15811.595411 15135.764623 7874.395680 12939.327078 12128.238015 9586.559306 6049.762698 12264.974946 10398.392085 12584.681238 4699.872560 7955.079062 3700.865340 10818.500976 11092.671450 9207.485468 1772.956568 8328.293530 8827.590691 8443.497374 7918.288275 5474.247496 9345.723345 8528.493765 11908.930863 4787.213464 8331.345437 15966.097548 15344.781448 14637.877060 10643.002133 14327.038986 7406.010993 14093.385988 12893.007125 4702.639003 13648.934610 12270.221911 3231.266541 6132.969247 5070.141676 5477.351261 4505.919031 3926.893144 2641.925269 10800.826430 5897.687023 12573.372708 2839.299105 10968.088461 6747.369790 7219.071318 7306.755403 3167.429040 3786.074589 16110.452086 16563.216067 17509.449145 10903.649204 10428.143768 14682.376836 12927.942763 11730.632634 4092.038507 14904.018059 13053.974437 4934.589522 7399.097175 3653.035313 2238.646779 3749.514587 2768.268808 5863.860678 3359.570919 4864.208305 3887.646581 3508.381016 3848.524155 5029.423415 1478.691434 4842.115342 5850.266037 3156.127324 16154.898003 16433.265869 15162.934764 15107.147207 12780.860983 16595.379078 10770.471882 10598.519876 8008.034945 6273.017734 11251.210196 4759.344173 4645.220936 16139.136495 17462.608239 15634.860919 11161.316164 15611.406695 12838.351678 15856.272082 8130.917759 8737.660631 8222.102412 4154.439229 3437.282046 5203.239116 15896.999429 19280.310572 20309.953333 9481.353087 11226.245109 11147.280518 11457.630169 7966.174546 3327.730049 6371.888170 5729.729836 5219.983888 3897.382944 15612.776375 17915.078637 20832.724658 7712.499584 11468.784218 8283.570107 12925.515279 9471.331993 6887.269925 9128.261327 8104.715007 11499.763023 5483.781268 15741.654473 16079.843129 17245.162680 16085.834736 7426.995182 6263.326319 9063.974911 13425.886097 9783.360161 9286.025744 4127.927596 2154.155874 3111.259756 16156.364430 15345.194453 14174.554007 14458.052083 13715.959838 10844.951601 9498.586154 11987.000432 10143.627629 6217.877627 8226.804056 6437.001187 3628.783330 16430.621053 15495.870683 14208.234699 14171.798208 15505.081619 11354.540655 7536.862342 6200.539908 4800.122858 9058.562371 6561.008901 8047.294035 6379.995599 16724.852505 16697.088647 15816.249098 13795.309736 14477.124390 13537.874008 7169.589442 2497.690898 7983.830196 5154.060787 5746.134372 3828.496476 4581.434344 17060.633454 17458.278859 16415.473747 9839.135125 13456.268416 14127.490688 6430.086339 8838.748234 9862.720898 6078.074204 5840.561970 2107.129058 3737.220859 17157.505557 17371.077773 16231.710828 7140.699409 12782.696978 11640.724548 6323.889924 9336.838924 5364.495897 5224.159750 7779.682899 5442.973687 3339.802553 16961.651363 17635.837872 16043.728136 17246.777377 13393.632705 10645.060275 11271.793387 6890.066069 5250.440976 5899.408026 12368.108574 8813.307855 6105.341966 16738.845648 16184.564071 14198.812619 13923.900643 9775.891267 11276.110320 5837.260512 10704.367329 6354.406579 14365.734892 2191.455758 9799.014762 3725.708792 16516.805885 15377.789290 14388.421084 13034.196610 13280.015454 13826.448369 8426.315897 10484.624647 7815.219091 7959.625045 10874.366900 5765.465717 2389.861757 16295.391129 16674.498836 18133.545433 15059.575836 5631.853886 8803.458537 6300.562901 4058.173312 11782.740051 12969.506633 7121.566726 4503.085462 2842.588540 16396.716443 16789.170144 17430.647711 8816.073198 14089.022211 11859.458183 6491.623197 13343.055732 2870.204690 9413.138631 7236.525519 10402.792984 2471.137216 16530.842870 15675.927793 12100.297320 14671.583644 10872.126014 13263.112624 14872.479178 9702.996533 15083.136497 5556.995559 6598.840230 6730.745415 3361.413664 16301.315233 17062.706375 15301.106453 12020.976721 8970.542405 10084.512916 3856.563752 13734.352485 5304.041194 12091.639905 10193.326057 3550.631295 4318.070854 16048.779684 17643.334853 17562.481224 14938.090649 13019.079425 13637.553389 4921.500698 17677.852862 9952.619415 12660.876448 6078.356682 6445.911848 5644.751106 16351.040557 17548.487284 16214.513045 15915.718804 9450.073860 11065.601157 11138.637357 10318.306910 7526.611630 6474.013544 7321.691933 8112.219408 316.415860 16965.743546 17744.845207 14744.342246 12644.670015 15702.454193 12149.263304 6858.060886 9599.969475 6146.422875 13945.497554 7502.263421 4090.985926 1754.118863 17344.243451 17200.405033 15111.012807 16866.846581 15829.883126 8127.271739 9735.587712 8028.396541 6277.720799 4342.489966 4069.755446 6382.723528 4666.426113 17667.020845 16790.656316 14625.459151 16695.425378 15830.745593 14977.400897 11532.615717 15014.961115 6765.477356 8242.805379 6825.085935 6682.935305 2955.153928 17863.714013 17365.057609 16053.823366 13468.683016 16805.559724 14125.270417 13843.996934 10088.729818 8876.599143 11838.040227 5836.391839 8674.038000 5915.939318 17616.511738 17077.414173 16470.872921 10476.489581 17217.974364 13018.297713 10215.937441 10069.766828 9679.897714 13516.612723 9569.527646 8988.793072 5540.955606 17242.195124 15475.710301 13770.027717 14579.613441 12370.300192 14633.083810 11441.404199 10310.514310 12552.422316 4250.519532 6552.577209 11302.771329 2878.458391 17141.317756 14563.251240 11868.658087 14527.974975 12386.981534 1950.488651 12526.786108 12518.081092 10918.224392 5901.268431 8053.050759 2847.609705 11086.857373 17007.111587 15726.038572 12881.884562 10137.863733 13737.625057 12935.524605 6129.341207 10301.074389 8500.723418 8075.686604 9185.312245 4720.475416 8178.849673 16903.165756 17580.405705 17714.574326 13516.445104 7211.426677 8090.384967 9891.231617 9431.987765 9709.054219 8749.630336 8210.877798 5760.030912 3204.206368 17049.660811 17984.279129 18079.698754 13115.701500 11990.055488 11958.254818 9129.636150 13361.601312 9473.017009 8677.673428 5885.047900 6530.040892 2971.229748 17195.558523 17201.818344 15215.878504 15802.027664 13506.286330 14578.615300 14505.439913 12023.828074 12561.002306 10964.388401 5697.460187 8871.997209 2048.454050 17183.322678 16649.528829 14691.768591 12864.097928 8896.010829 13635.089434 12367.140540 11036.864285 9120.142574 5452.314753 7151.498060 4694.504469 6630.836187 17173.313370 16302.549810 14527.277058 15258.366224 14299.984555 9661.157760 14691.476195 4155.265758 8111.412465 8431.168420 5315.229033 11208.296095 5718.033223 17310.010715 16384.999481 15248.385819 16786.988269 16171.703379 8317.657940 8414.176743 6296.749593 4649.949481 5307.344602 6782.127337 9496.982808 3327.973826 17606.127339 17011.135326 16400.155358 15386.292644 17893.687317 12252.191558 11002.119285 13625.357491 14570.033370 11132.242599 4097.811348 4004.857889 5824.193884 17919.525522 17411.372456 15527.040304 12067.665299 11921.463618 17590.816726 12143.332735 10389.910433 6090.489039 3816.688668 6610.904418 4587.875019 10126.735332 17937.705599 16456.081282 11441.072712 15174.760637 10809.994836 19040.225788 17540.945195 9975.714301 12353.603080 8924.375093 7838.278437 4848.277518 4341.494746 17876.259328 17605.307064 16031.124710 18280.569959 12253.355008 12720.765721 8962.012377 6172.955892 8605.232650 11761.926190 6995.504673 5199.115338 5666.998102 17969.995850 17942.952215 18109.898252 12829.418754 13657.659759 8045.954417 12831.677444 12611.749041 9553.653333 9528.003517 11014.684115 7395.185405 9257.995234 18124.876999 16433.259502 13077.749028 13915.146438 10266.605074 18412.804786 10943.836015 11881.330864 11819.060408 4778.435427 11328.199582 7900.381410 2917.307956 18112.074214 17132.922096 13618.956278 11164.915028 19035.996687 15117.812039 12199.897926 8770.560385 5078.933315 7325.133062 5109.410519 12440.410569 11077.954594 17866.409150 19497.065458 22178.311008 15368.156399 12440.085751 12614.294366 8979.841229 9543.296163 9455.387254 9694.911217 10043.595565 10773.414363 8743.800338 17581.560132 17657.341657 18986.760454 16564.319883 11760.557763 14681.732634 15369.668432 8091.635018 16294.692364 7443.632233 7327.496171 6199.516125 3069.824901 17614.685009 16001.530960 15122.313084 13810.709031 14479.935089 19752.418344 12424.735167 16774.674635 11240.798819 9589.696882 10517.278585 12074.376730 1368.616147 17791.033920 18044.009576 16984.765260 13824.873131 11688.527785 8239.529573 17603.489287 19332.795027 14936.012187 13634.569574 11649.830904 4432.956077 8462.662386 17935.441147 20809.682714 20682.346034 18810.066352 18842.080489 13248.304597 12627.995337 12978.834704 12380.868409 2852.395428 8772.242984 10486.776503 3864.973762 17706.041609 19040.780047 18168.426170 8686.607567 15099.776888 13103.687486 9010.906731 6793.581750 6483.029147 13502.699392 14625.811849 4708.503985 13409.788668 17460.277033 17391.626165 16894.691519 11016.010022 15054.456625 16122.567647 18631.625089 11532.089757 8489.428216 8879.494532 9640.426449 4908.595178 10516.160902 17663.604675 17598.229427 17206.674502 11731.465302 11411.489162 12395.609967 10860.244988 13492.850481 8001.710194 10605.948467 11372.044180 13564.516653 11014.937263 18325.322587 18622.896177 15727.053476 20447.493148 14566.026893 16024.599274 11964.560197 15405.260886 6749.998733 12512.431527 8174.426742 9176.697947 6483.497298 18912.007323 17100.006964 14219.204728 14725.666257 16048.458255 15029.592323 11204.302254 14227.018620 13015.638532 14978.594522 14316.878340 7271.592850 3827.755210 19125.684694 16573.541960 12936.603107 19053.485247 13831.547606 16890.618091 10298.057998 12998.958570 14211.741375 7694.345819 13572.808028 8073.628561 8162.975807 19296.107717 17969.620377 14628.194565 16351.997184 13761.810216 10789.212440 17763.762387 10381.849243 15621.084189 8938.457909 4216.521342 6403.673527 8764.719608 19138.185677 18111.077146 14340.774101 13796.998694 17447.912512 5227.289376 12076.433100 12673.889570 14513.585485 4468.301061 16378.065705 8461.133005 8029.647080 18701.094297 18018.678070 15927.144487 15292.384597 15610.991966 14453.172809 9353.161571 13623.365801 14864.690529 14726.066364 15956.463111 17157.135024 7773.736064 18420.248289 19323.594479 17487.166963 16974.867415 15494.316138 13849.948171 17822.996844 14987.849650 11345.080680 10237.834523 9076.967396 13123.558184 8658.932640 18534.146891 20252.900583 19251.772944 16748.326239 12113.833180 14709.769690 13361.923112 15609.732836 17335.641680 14180.071935 8231.052230 3284.806450 5795.413965 18729.330992 19146.009037 18762.750344 11150.095423 14776.423854 11995.178752 12852.905815 12401.600094 15806.578454 13111.631139 11625.951173 4182.793631 9526.663793 18868.404121 19178.195357 18831.470971 16555.223800 15881.919948 15709.171716 21531.639069 17680.484269 15788.072214 14683.387646 12873.492460 8818.130105 8381.384633 19051.346848 18807.872338 16776.532677 13118.790845 13640.174721 12579.540430 16686.942533 11832.912681 16363.572263 14993.887369 8182.505780 7194.805615 10495.122978 19226.490806 19081.776352 16820.987896 18421.747168 18464.463007 16345.577254 14400.140199 14155.825019 14055.068596 16242.650257 7842.417951 10376.987464 4809.513057 19122.938714 20934.811904 20130.821526 18434.083061 10585.139342 14805.045452 17573.792212 9543.836888 13806.682091 10220.359058 8666.124105 14500.062018 6657.495780 19246.440960 22102.370300 22948.117686 14935.654983 14171.283542 15056.539158 17295.403131 9973.519964 13995.481303 10535.338800 13732.588565 9862.130661 733.539250 19457.844185 21947.328073 21224.993168 14674.029228 12009.092104 15592.253588 13425.566601 13165.416419 20176.095340 16390.363553 12067.529902 9202.068802 13837.456278 19208.724129 21508.637707 22429.809220 18222.044656 12142.532305 16074.233934 13443.714906 17688.110940 12035.273079 5240.354742 14264.685540 5085.966813 7067.570868 18846.857693 20025.805116 18283.910659 16032.322450 17930.988051 16163.523454 8239.771901 15789.559287 15700.999576 12743.911759 14911.219224 4716.836763 9004.238610 18763.046510 19494.293553 20699.312281 17355.977945 15324.740542 14788.649151 15870.049041 11143.028751 12108.423890 11604.358002 9622.960751 8427.367556 4051.492225 19066.126487 18656.334538 18776.034976 14364.003164 15646.644255 18379.130542 18019.587659 16055.181563 8794.839535 14769.176878 16967.586842 3598.425520 4289.424347 19565.444261 19619.957566 19987.014820 14131.953095 15289.406700 17193.287505 17135.409239 15982.055253 12139.494550 14599.745992 16171.646432 11857.593968 1857.040645 19876.458107 18840.848080 16599.684743 15415.806771 11389.814516 18574.855873 14173.301204 11600.064539 16769.355539 10464.887343 10197.907109 15009.519829 12393.889727 20334.706847 20225.637941 20233.138581 16323.789875 18719.723265 17107.380794 19702.592449 15623.408526 16114.624475 12980.445482 14642.556444 17193.000165 4430.771174 20472.528711 20240.754596 18261.515166 16853.555306 16015.824159 10713.075047 15433.556490 12660.412967 12747.119621 14724.871999 5979.653162 21293.264207 12385.870714 19900.787274 20128.470739 20444.579366 17862.142745 9952.972345 13998.113523 16457.156666 14872.115704 20816.192736 17681.678338 10074.107505 10685.012502 12144.370417 19184.304272 18625.271409 21949.163827 13403.090637 17447.217159 19242.394046 16552.179354 18878.228001 15456.540835 18213.300271 17062.788399 26218.778644 -1853.410875 19392.777929 18737.976816 19159.210610 15685.521988 16485.200619 18495.876195 19839.566002 17173.615808 11456.436954 17234.035850 12877.156762 6564.308659 5468.980230 19826.695012 20590.104266 17638.828959 15234.082460 18352.161134 15151.192032 15296.475072 17148.858001 19529.038795 7350.008885 10074.069008 12471.979790 11360.010066 19679.773510 20362.950958 17609.375259 14125.767156 13642.631941 17601.007611 14263.601910 15191.855858 16665.119850 21369.297224 17612.776757 10312.055897 8158.700521 19261.503463 18204.602017 18146.824235 19393.397622 12897.101583 19142.344375 14292.806548 17243.994622 15909.679862 21099.876682 16070.827841 5870.351113 8809.377862 19079.177379 20680.923564 26112.943313 16969.977493 21353.506092 14159.878656 18692.842616 21898.719178 14901.703144 17260.270987 13473.998695 18823.203436 14859.371998 19076.037772 22012.725891 29864.190451 17765.134846 21218.742398 17322.388188 16945.092876 14822.981386 20830.953561 10541.645236 12509.128503 16490.464114 4613.974879 18760.915672 18264.447902 16575.869836 13817.215325 16842.209840 21700.174941 19817.827855 8092.709379 20165.503253 17031.694824 17322.574260 879.109546 14845.470549 18183.121599 13949.167662 7230.975614 15650.026349 14255.582873 17282.988456 25492.819050 13519.981063 16126.653980 18298.879899 12885.854488 11533.516071 4500.135814 17557.984654 16363.759627 13352.669520 10842.875633 20494.689871 16472.011406 14687.548409 13966.312452 13118.842972 12339.901707 12812.992125 13140.344824 20813.779054 17037.865556 20105.683513 23491.668659 17857.578853 16861.218968 20349.679732 17175.087204 19462.449688 21198.486376 17260.494730 17108.556183 18482.908110 12753.945169 16610.917655 16478.043469 17012.852327 15969.275383 16722.414836 19288.510218 18099.286642 17833.504563 13162.428990 18809.977735 18613.229798 18678.790394 20290.930370 16119.996039 14479.433301 11206.680637 15043.784918 19119.584592 20445.336519 17425.106268 14040.369864 16681.409155 18611.173052 21471.775817 14701.009452 16668.707457 15963.571570 15961.707013 16872.831156 18217.983537 13190.620598 17079.786948 16286.698985 15538.256395 14972.702766 15263.112385 17946.646109 17978.663371 15574.875946
</DataArray>
<DataArray type="Float64" Name="Velocity" NumberOfComponents="3" format="ascii">