<VTKFile type="PolyData">
<PolyData>
<Piece NumberOfPoints="2177" NumberOfVerts="2177" NumberOfLines="0" NumberOfStrips="0" NumberOfPolys="0">
<PointData>
<DataArray type="Float64" Name="Pressure" format="ascii">
 20351.457037 20349.039094 20265.813393 20076.171371 19745.237997 19232.562946 18477.304294 17532.226333 16518.304185 15417.466706 14289.792500 13177.894604 12092.294213 11057.291627 10017.073408 8814.141375 7357.612580 5531.964963 3586.690591 2278.507130 1781.656522 1648.702161 1305.271057 726.761765 259.537540 -196.416946 -839.798159 -1464.884894 -1871.284519 -2108.451728 -2252.533523 -2302.313046 -2253.094664 -2128.355677 -1962.524938 -1782.933128 -1605.094389 -1435.939762 -1278.027781 -1132.093485 -998.149272 -875.884608 -764.813986 -664.346392 -573.827560 -492.568729 -419.867106 -355.023016 -297.363184 -246.294331 -201.453452 -163.050376 -132.258599 -110.499008 -97.620218 -92.104737 20783.164051 20712.269086 20552.652738 20328.384584 19816.512660 19201.019994 18397.890951 17419.039676 16446.001416 15284.226502 14305.582499 13441.931405 12431.283039 11207.001851 9912.555602 8620.184075 7724.763806 6203.159221 3441.056988 1810.609232 1653.937387 1894.558502 1079.666568 420.433853 754.138997 93.552403 -1308.526357 -2017.678132 -2137.502724 -2177.064048 -2255.873792 -2296.061599 -2248.720136 -2126.391577 -1961.912858 -1782.882717 -1605.233148 -1436.132146 -1278.231641 -1132.295804 -998.345064 -876.071304 -764.990051 -664.510854 -573.979610 -492.706952 -419.987347 -355.111696 -297.375995 -246.091355 -200.617115 -160.765042 -127.890599 -106.096946 -94.312079 -89.628306 21384.463563 21155.183139 21496.683688 21457.971566 21419.825130 21091.661976 17563.859460 17226.519021 16154.937056 14151.648355 14306.542160 13926.319275 13340.672794 11040.721715 9369.222521 7045.991036 8723.434275 8241.272577 1612.721130 -1211.920277 991.844183 2135.958139 -1901.247240 753.062855 3000.332016 -1692.716302 -3504.172348 -3720.853364 -2827.448049 -2301.479079 -2267.579128 -2293.779304 -2246.943232 -2125.691695 -1961.628458 -1782.686517 -1605.037900 -1435.928967 -1278.026110 -1132.093303 -998.149261 -875.884572 -764.813843 -664.345906 -573.825956 -492.563446 -419.849717 -354.965789 -297.174948 -245.674396 -199.432048 -156.028134 -117.372393 -97.509563 -88.676678 -85.519560 -95.787929 -86.780795 -82.895787 -77.593673 -74.415170 -72.501485 -61.095136 -60.329683 -59.597453 -48.695924 -48.492784 -48.237315 -38.759999 -38.718179 -38.620451 -30.717030 -30.719924 -30.674533 -24.208114 -24.221891 -24.195176 -18.964209 -18.979035 -18.960271 -14.764661 -14.777878 -14.763462 -11.423379 -11.434475 -11.423014 -8.782794 -8.791873 -8.782683 -6.710103 -6.717428 -6.710069 -5.094225 -5.100075 -5.094214 -3.843036 -3.847670 -3.843033 -2.880806 -2.884447 -2.880805 -2.145815 -2.148654 -2.145814 -1.588199 -1.590397 -1.588199 -1.168014 -1.169703 -1.168014 -0.853527 -0.854815 -0.853527 -0.619739 -0.620714 -0.619739 -0.447114 -0.447847 -0.447114 -0.320510 -0.321057 -0.320510 -0.228285 -0.228690 -0.228285 -0.161554 -0.161852 -0.161554 -0.113596 -0.113814 -0.113596 -0.079362 -0.079520 -0.079362 -0.055088 -0.055202 -0.055088 -0.037993 -0.038074 -0.037993 -0.026034 -0.026091 -0.026034 -0.017724 -0.017765 -0.017724 -0.011989 -0.012017 -0.011989 -0.008057 -0.008077 -0.008057 -0.005380 -0.005394 -0.005380 -0.003569 -0.003578 -0.003569 -0.002353 -0.002359 -0.002353 -0.001541 -0.001545 -0.001541 -0.001002 -0.001005 -0.001002 -0.000648 -0.000650 -0.000648 -0.000416 -0.000417 -0.000416 -0.000265 -0.000266 -0.000265 -0.000168 -0.000168 -0.000168 -0.000105 -0.000105 -0.000105 -0.000064 -0.000064 -0.000064 -0.000038 -0.000038 -0.000038 -0.000020 -0.000020 -0.000020 -0.000006 -0.000006 -0.000006 0.000006 0.000006 0.000006 0.000019 0.000019 0.000019 0.000036 0.000036 0.000036 0.000060 0.000060 0.000060 0.000094 0.000095 0.000094 0.000145 0.000145 0.000145 0.000219 0.000219 0.000219 0.000325 0.000326 0.000325 0.000476 0.000477 0.000476 0.000686 0.000687 0.000686 0.000972 0.000973 0.000972 0.001351 0.001353 0.001351 0.001838 0.001840 0.001838 0.002440 0.002442 0.002440 0.003145 0.003146 0.003145 0.003905 0.003904 0.003905 0.004610 0.004606 0.004610 0.005049 0.005039 0.005049 0.004847 0.004828 0.004847 0.003388 0.003354 0.003388 -0.000312 -0.000370 -0.000312 -0.007763 -0.007856 -0.007763 -0.021218 -0.021363 -0.021218 -0.043963 -0.044182 -0.043963 -0.080687 -0.081011 -0.080687 -0.137955 -0.138422 -0.137955 -0.224788 -0.225449 -0.224788 -0.353384 -0.354304 -0.353384 -0.539969 -0.541230 -0.539969 -0.805806 -0.807508 -0.805806 -1.178351 -1.180615 -1.178351 -1.692558 -1.695529 -1.692558 -2.392327 -2.396174 -2.392327 -3.332059 -3.336980 -3.332059 -4.578309 -4.584530 -4.578309 -6.211485 -6.219258 -6.211485 -8.327552 -8.337157 -8.327552 -11.039702 -11.051447 -11.039702 -14.479934 -14.494148 -14.479934 -18.800498 -18.817533 -18.800497 -24.175173 -24.195396 -24.175168 -30.800333 -30.824126 -30.800320 -38.895806 -38.923551 -38.895761 -48.705487 -48.737551 -48.705342 -60.497751 -60.534425 -60.497278 -74.565692 -74.607007 -74.564146 -91.227366 -91.272504 -91.222320 -110.826634 -110.872010 -110.810165 -133.736586 -133.769571 -133.682841 -160.372276 -160.350445 -160.196915 -191.235943 -191.016681 -190.663800 -227.069053 -226.163098 -225.204112 -269.566740 -266.066225 -263.457576 -320.942591 -307.794304 -301.615652 -350.279433 -328.349593 -318.476454 11501.029289 11320.206807 9422.098400 8485.627983 9292.700745 6979.207931 6440.002159 5509.122139 6743.366327 4488.413155 3373.440012 1472.339448 -3438.890869 -3288.411062 -2652.776284 -2661.703395 -2754.992926 -2882.093847 -3030.231630 -3182.243152 -3324.171608 -3448.025991 -3549.862831 -3627.713084 -3680.400313 -3707.041765 -3706.961890 -3679.849206 -3626.020427 -3546.660679 -3443.934297 -3320.914031 -3181.338886 -3029.260436 -2868.661451 -2703.127356 -2535.627098 -2368.426046 -2203.120460 -2040.759151 -1882.007258 -1727.309219 -1577.019454 -1431.484807 -1291.077512 -1156.187759 -1027.188909 -904.383980 -787.923098 -677.618361 -572.464223 -467.064689 -377.087630 -339.415264 -323.130736 -316.861630 11299.215398 11098.164752 10462.900100 9363.580219 8648.076833 7998.441994 7114.238518 6468.823082 6035.521921 4623.209469 3001.171136 1060.328347 -1253.493575 -2038.164903 -2374.021582 -2566.282374 -2719.081423 -2868.654299 -3025.323986 -3180.357363 -3323.295761 -3447.473805 -3549.408670 -3627.282947 -3679.969540 -3706.603649 -3706.519145 -3679.411575 -3625.602732 -3546.279919 -3443.606172 -3320.649843 -3181.143623 -3029.132398 -2868.593298 -2703.108113 -2535.644498 -2368.468629 -2203.179021 -2040.827401 -1882.081735 -1727.388692 -1577.104117 -1431.575609 -1291.176083 -1156.297943 -1027.322972 -904.583524 -788.328240 -678.707016 -575.823229 -480.381653 -400.290928 -354.390704 -332.077857 -323.453005 11132.567282 10911.468191 10400.540651 9715.409546 9166.814667 8665.893660 7575.036307 6439.469244 5471.512792 4357.732285 2968.917260 1295.320913 -376.674657 -1524.140539 -2149.294322 -2478.723395 -2683.418963 -2854.891353 -3020.478654 -3178.893996 -3323.045546 -3447.648837 -3549.735827 -3627.670013 -3680.385654 -3707.036788 -3706.960213 -3679.848646 -3626.020239 -3546.660614 -3443.934272 -3320.914020 -3181.338880 -3029.260433 -2868.661449 -2703.127354 -2535.627097 -2368.426047 -2203.120464 -2040.759164 -1882.007302 -1727.309363 -1577.019925 -1431.486350 -1291.082567 -1156.204312 -1027.243102 -904.561367 -788.503449 -679.520209 -578.618023 -488.657185 -415.705377 -366.658457 -339.552540 -328.518398 21740.354632 21758.486929 24073.081146 22328.958689 22401.205368 22556.848584 15692.072943 17193.212852 16309.138685 13980.011077 15566.060197 14903.553068 13810.182412 11082.694350 9812.436489 5615.904130 9141.322306 10547.370687 1980.078479 -803.806636 3741.173343 4658.817008 -8226.447460 5736.457073 7434.785380 -10866.099842 -7676.277455 -4940.055204 22820.029386 24241.168904 29010.798224 23339.809807 21026.541095 22112.130202 22711.977881 22627.983631 24008.822537 23577.543036 24690.798574 23216.846420 23229.569815 23646.079178 21244.717383 20394.050632 23751.812177 25393.343704 24200.100577 24919.902848 25785.583379 18924.080019 21209.492474 30014.570269 16837.028620 25265.607225 12932.677771 9132.981430 24268.782355 25827.895423 26458.949212 16883.854230 23087.188841 20202.420127 21507.695632 22943.787892 24238.862093 26007.886530 22189.560509 23362.936652 21040.384399 22197.587579 24473.544431 26107.460229 16313.403467 18984.006706 23248.584425 19324.682312 16392.584511 21261.901661 24148.011226 21373.046401 26152.729465 21503.464641 15802.353560 17897.691159 24940.611745 25448.805652 22299.114559 17469.154842 24370.827082 15944.871447 22207.577367 23764.272742 26316.095307 12428.224994 11567.079117 11959.203283 21273.403482 18791.220287 23864.715768 25284.444874 18181.268036 18908.134297 18499.141357 21193.417943 19384.755201 11365.001474 20035.395048 18043.970160 18753.478997 16134.534870 23339.228531 -793.806622 24711.546862 23598.638698 21747.519689 23431.316199 9206.324643 22472.836767 18152.630261 9486.053781 21674.637165 10200.747260 19996.157249 20012.607325 21348.420867 22145.874196 7413.458886 10563.372767 20797.511319 20751.108532 6524.508006 20543.386795 2557.577076 18138.953366 20069.279488 11236.811474 15318.006319 4433.444673 11341.911679 13827.992579 24648.912750 25518.322044 25064.832979 20488.574651 22082.220176 17041.815134 24152.265193 16579.579039 14369.332059 12370.940019 14852.665553 23732.373918 16434.807071 10747.020172 10249.493916 19300.199182 13074.993485 15704.864584 20049.441354 19051.683716 9698.443479 16940.636103 13960.495752 17227.090006 14739.825161 9103.866826 13120.846644 11615.117518 24706.107482 25190.100831 24260.050637 24635.993704 25028.203222 20726.981745 14743.943991 4956.720771 13680.323240 13739.611740 15034.082834 19066.448427 21489.308879 19271.398875 23843.867703 14381.987317 9358.042765 13996.346717 12286.204908 14721.893735 6415.540436 14668.826032 18503.595156 11280.629750 7682.184974 13604.222680 10610.495863 1151.917202 24868.182384 26162.041695 28768.747765 21542.526640 21091.167995 21556.572392 20935.910500 20062.309430 16913.440578 23534.859426 13482.792178 19296.115699 6659.839307 12842.529270 18941.615799 18794.728812 15074.976000 14340.887777 10404.348165 8029.667566 14539.807554 12189.766040 8026.597371 7565.696627 9859.332547 2196.326314 7163.180306 -6358.373424 25386.599501 26773.303012 29496.924228 24572.302494 25833.401584 24502.546914 22545.714632 20003.391902 15604.558455 8044.832763 13432.610860 21512.789839 19257.058995 22401.993506 12810.564140 8180.316556 12405.601460 10099.782091 15266.182261 3375.297299 17209.506185 14826.962984 6892.474867 3246.202789 6633.250911 8708.633263 10837.706221 -10024.920298 25609.675880 26307.266747 28890.406357 24257.505064 19672.159373 17809.830749 22606.378822 20361.611826 11739.433235 10205.903191 4730.751333 9159.531535 6917.551511 3979.389389 4041.532360 9893.891965 8651.554511 7889.481824 13043.481791 3782.095858 13902.465478 16652.084583 14751.475310 3991.420343 16404.150538 8833.117124 3497.631624 -9721.500257 25548.314248 25792.233568 27582.990957 23468.307653 23223.251929 19225.014790 21750.230994 15690.645976 11469.444987 21726.837021 3487.706383 18180.495343 8145.673245 13855.055684 18541.691292 6924.698719 4074.651236 10413.173304 11776.854301 9075.541766 10376.076124 6950.681219 4370.719543 6121.204932 15215.936021 7948.977724 277.411923 3539.492795 25596.652145 26302.916840 25240.022011 23332.928763 17878.324098 24007.385702 20339.300778 16048.437313 7340.822689 9128.402939 6481.766032 7827.683444 17357.523211 10126.170523 11266.649028 21611.686991 14495.518894 13533.909340 3698.612110 6119.250802 1744.355931 6476.600384 8456.804747 11328.440393 10132.681480 8939.669206 4931.251927 10976.846474 25594.192929 26653.802499 27072.784928 17878.512616 19188.595952 16938.851507 19200.813811 17762.984591 16664.999328 8424.359233 7729.959794 5427.549670 13382.931953 5470.842487 9702.921217 13113.279944 8678.716776 3659.017322 9005.898684 6845.345467 7931.314892 4331.237469 8216.800379 10918.326269 10392.763626 14644.960477 4999.968050 8695.019819 25267.243230 25386.362335 26019.776939 19604.515563 21118.779413 8995.481654 25286.344844 21066.224932 8557.515354 17497.668456 18027.169145 4400.119153 12192.580418 2630.769791 3408.462455 3907.142931 5664.310049 575.840399 16258.001908 6272.946304 12689.902083 893.576183 18198.863370 5740.739446 7961.476239 13138.563536 4557.236182 2770.315343 24849.239025 22787.200882 21516.275941 20223.711576 20238.343798 20489.388973 12199.036138 19868.214569 3881.558489 15325.034342 15777.290978 10399.073935 10514.945944 1917.035021 3517.909746 1607.192292 2060.432660 1667.103627 3863.114642 3251.741246 3418.487264 -1569.314969 9291.196698 3210.394020 8310.822301 1216.994366 1570.795369 15857.106763 24639.333671 23559.352390 25098.812279 22467.640626 22056.990813 24688.818685 13750.517853 13797.181256 8874.009564 6216.894586 8499.314954 4123.470315 3181.967530 24377.745523 24235.258242 25165.542594 23939.389971 25054.662220 13841.079547 20396.571015 10324.921924 12614.862015 10400.324309 8859.984955 4632.145874 1738.017616 23994.547196 23141.757346 22193.642463 16095.538141 19245.881049 16840.085805 13197.941822 14336.071038 8044.572579 6146.610359 5890.942197 1764.214671 1891.598421 23614.475495 23140.058674 22319.043686 18633.446184 20995.857489 11159.027677 10486.919242 14969.426995 7336.116474 3227.853341 9048.842024 11969.520007 3673.440667 23295.615980 24178.699907 26476.034851 22941.830198 7570.173601 8572.480387 5350.381276 18552.332911 11082.255327 7407.456838 1949.922472 2470.813621 1453.621020 22946.998785 24163.651742 27674.103847 20661.406884 15895.614366 14913.872603 15489.899269 9623.599756 9579.442933 1614.154636 6406.017056 4832.470119 2321.959506 22732.022594 22101.780012 21284.653301 18092.048990 18198.253664 20556.759268 17350.821410 9995.577975 5397.630477 13507.554803 3689.790185 9758.007251 2073.720814 22776.143164 22768.038918 23454.742909 19705.681468 20215.945647 13577.627978 17761.980375 3969.884961 8747.545052 4490.668351 6131.463106 4487.074700 2111.985225 22878.621797 23485.341558 24090.542522 17824.354961 23015.757852 15643.479968 13386.231204 6559.818746 12007.864859 3658.624740 6437.644618 1103.662808 1223.761503 22979.218908 22816.700167 20893.189869 14185.704874 17839.483419 13512.397570 13440.482924 13749.970474 10934.106657 7970.403070 8906.807562 7314.281882 -239.424484 23056.248126 23549.812769 23181.758325 22298.792732 18768.236495 20323.808203 18741.483406 8142.573943 5569.032193 6158.836520 8676.318144 11901.351460 4537.758594 23064.213675 23395.925044 21417.420641 15795.071015 12133.025865 16852.373183 8089.400511 12322.650422 7547.460316 8391.467759 3837.495162 4139.028683 2744.116686 22910.532834 22925.042634 20958.184552 19701.937301 14410.565569 16191.101995 10122.396285 10766.217847 10384.543699 5875.270001 12849.096171 6182.614560 3220.120665 22341.426275 22521.264452 23247.395499 19852.107315 11911.087694 13630.794593 9117.075650 6061.962051 8144.151941 18105.151170 4562.320331 4184.042188 3219.166042 21579.577960 22140.729789 24160.563620 15179.887152 17202.478908 18917.112771 8231.810812 15970.696471 7169.653505 6719.024302 7235.835260 7297.018469 2732.915304 20981.090773 20985.406256 22442.272518 17122.470432 11425.998578 19609.259539 17281.210449 12483.240608 12302.676344 4207.521938 5143.481112 6081.651177 2453.439718 20513.279036 19853.450069 19725.271953 14275.986098 10298.649941 9033.161234 3069.572666 15067.574300 8634.811512 12815.236878 4187.580177 2506.730988 1623.662044 20164.580417 19965.792830 18162.689000 19983.001312 17494.666526 10671.608270 6049.323336 18531.261453 10738.048234 6725.522926 8341.965230 4297.054080 4226.153009 20167.547780 20530.138806 20085.866436 17478.880369 10461.021262 15469.568922 11754.605689 9631.316435 6595.435405 7833.726760 8731.966974 8561.437003 4507.933261 20263.470580 19571.135156 17612.625388 17593.855374 18422.705018 11065.100233 4962.127612 9211.971054 3101.785726 13249.257751 4793.866542 5523.009188 2370.723310 20081.321386 19730.840531 19532.206502 20601.707739 16352.824337 8008.962713 8782.989215 10043.526287 12224.033816 6217.894914 4315.362590 3414.721580 1744.660430 19559.846068 20423.774619 21855.701811 20918.446387 14963.494021 19209.475863 13516.814443 12563.086900 7137.992507 6885.332961 4207.141799 4517.887563 1081.069141 19116.354858 20382.377682 23183.902741 15615.857146 16149.601167 16144.509646 14145.787303 14205.255486 8310.058294 10397.185120 2568.843995 2639.146723 2609.378984 18808.085769 18550.472295 18563.715734 15076.074729 17503.790412 15491.999795 10127.868195 16819.114336 12352.509933 11810.136991 7908.900351 4853.570170 -643.939458 18607.223960 18481.014118 18049.442852 15658.773389 18397.813062 16253.281517 11237.164432 14393.733577 12820.969811 7530.006603 3366.510803 3721.218881 3328.094871 18545.232896 18857.721518 18935.358659 18762.350551 16670.194355 6604.678276 18926.393100 12624.971137 13181.953785 3302.543183 7240.686288 3362.948651 8039.882880 18606.766245 18370.484115 17936.039560 12285.978921 15264.703456 14953.427144 7697.291520 10425.985484 10033.036827 6892.754386 4533.244874 3423.879974 3537.741746 18743.480348 18805.999569 18703.154249 12497.695957 11709.247653 10373.131310 8591.611434 8589.294180 7185.907591 5785.924599 2046.175741 6203.451742 1805.136216 18780.985620 18963.890752 19549.562276 17118.044116 14085.151530 14506.611582 8654.159267 13202.107468 7597.423390 3294.555620 7840.871295 1929.180129 864.566502 18841.120817 18631.729400 18174.720120 15945.113220 17094.935006 16865.788064 14242.024165 14522.070415 10374.126855 8500.187876 5893.532498 1745.753663 2471.789300 18817.702479 18798.927901 19667.224880 18108.335302 13619.244818 15523.689359 14325.024374 9383.828234 7055.502503 4148.482645 3585.141138 3696.192175 3616.440398 18587.778042 18667.530880 20282.474190 18555.132562 17746.587280 12428.889283 10414.800998 6807.946199 2339.107903 6738.756542 6306.747926 2738.621489 1666.516665 18492.992795 18315.305225 18409.315564 16964.665897 16871.127215 8650.880737 3923.560434 1744.989458 7120.409102 4961.567735 9176.227866 5308.574422 3552.313779 18515.936561 18865.304821 18435.571690 17356.713001 12876.030140 14500.073244 15255.436661 13543.009978 7495.757149 10197.166064 2106.418323 3137.632922 1652.398415 18358.888594 19226.886526 18491.997183 17522.581642 21201.377947 17361.359907 10085.811377 12310.942410 5286.436933 4784.217613 280.220883 3408.960731 1183.137490 18047.199349 18610.143010 19173.953180 17465.224393 13410.907014 14289.283553 18598.357174 9006.650525 8008.149397 5961.970265 5855.355566 1902.146943 645.049989 17752.881519 17567.519799 17853.875240 16656.508709 16853.024552 15352.761984 8430.500680 782.447164 4109.912697 9613.293589 1909.148250 2964.754828 903.739004 17505.730990 17500.961946 17992.421216 14086.329791 13278.090246 12206.448492 12338.128919 6273.458107 6421.382865 7145.843312 4295.440395 7766.566431 3798.723865 17357.334700 17810.256041 17842.243451 16508.411519 13089.422804 11893.422435 10461.966543 16417.399151 12550.986975 2983.387558 5925.210654 5107.114602 2149.304797 17218.249694 17380.599198 17359.512607 17963.175090 13076.658488 13491.044442 12875.710334 14105.170233 5709.330531 5029.204879 4241.512840 9260.240744 2267.546177 17069.960898 16608.474073 15302.968690 13492.902021 9327.677062 12366.787481 15717.359354 10500.450511 4962.070619 7867.413305 3758.403593 299.738693 3696.046282 17186.611015 17426.889236 15819.261298 17492.291112 14942.083864 14013.445717 12447.271191 6249.190908 10520.639297 7186.285067 4510.547404 1542.581914 2050.344484 17344.534975 18450.450015 19247.955983 18266.173972 16238.931062 14905.113982 8848.776105 11886.616188 10049.090482 7690.350672 8592.055002 9564.768310 1391.654005 17457.874452 17939.133654 18560.218101 16820.768418 12328.510342 6899.037859 11034.524723 11293.071528 7492.014543 5921.970919 4294.872962 827.031424 2237.267361 17695.049128 17670.322248 17352.287825 16125.662688 16984.377501 17821.940990 8674.445331 10612.825796 5492.257139 1571.767119 7948.962369 6879.895827 968.159306 17703.768835 17742.256697 17918.900671 16506.394484 18930.383207 13609.789870 8078.127544 6747.043547 1015.855905 9160.523530 9269.570072 1866.194102 3127.307118 17422.594152 16128.536194 14473.954714 17390.713319 13906.725365 11908.549073 7447.731115 7932.160924 3792.099122 5083.086046 7554.312607 1459.339059 1582.628290 17354.607651 16369.219094 14299.854693 13964.416503 10888.019235 11579.153680 9532.387644 5967.483054 3296.143792 8385.883068 4590.653909 10311.981350 1983.298283 17372.020896 15326.641718 11032.247769 16075.568764 14851.056465 12612.656737 7794.647442 7400.245506 4695.115523 9098.763856 2384.153802 4196.007341 2529.478595 17236.700564 16484.895560 14187.179092 11700.259855 16205.694179 9337.284670 8010.285426 9972.098783 7048.810362 8866.290517 12063.657258 1274.851287 2221.903793 17165.289734 18648.718065 17719.816309 16105.428877 12148.202269 11534.087115 6930.806300 9225.233726 10174.248571 3368.058072 7667.378637 5508.571008 5690.022674 17446.580063 19266.995342 17327.006719 13495.720536 14437.965681 5966.393310 9741.280930 7722.736875 12006.222966 8088.142928 6368.156699 7067.603714 4165.594876 17670.840806 18628.630894 16289.519342 14643.426168 11685.776842 4420.108992 11200.486404 8478.017463 9654.904761 4843.846495 6805.948226 7316.162159 4045.376907 17589.199890 18086.241906 16547.043095 14373.539932 14725.018507 11142.644449 6712.444486 9068.060374 7875.510298 9702.012457 8056.361394 7711.625659 3233.979933 17275.860415 17573.049067 16569.107493 11407.761365 16349.662460 7907.191007 10141.787221 7274.249954 9457.259777 10192.388805 5124.571183 6497.791080 1124.915337 16969.459672 17465.050470 17088.730893 15177.728419 14332.251428 12552.943350 10296.260099 11883.555257 8345.301918 5900.383789 3699.055457 1589.318882 3813.210933 16849.088394 16779.385742 16066.049086 14305.999546 11638.306958 14442.016170 5662.108734 9642.361311 8602.672552 9098.556988 6502.418914 3269.441782 7100.603247 16789.885878 16292.135740 15456.411591 17575.979531 12121.386485 15667.225115 16630.756543 13019.867180 12606.026437 10560.866766 9198.806858 7827.694326 1109.235146 16649.610590 16433.776935 15072.637709 16375.670787 14173.433646 6466.093745 11233.788789 13129.003533 8700.716448 9795.273957 4857.975568 2719.173956 2374.207018 16472.826416 15908.938283 14872.851201 15163.681832 14669.453750 13494.266858 11721.664015 8061.555227 9162.729714 7826.877316 7786.210735 7176.338242 2559.018273 16447.240918 17348.510256 18511.002433 15322.561469 10661.438224 11377.503428 10066.666878 4434.225219 8736.657932 5533.479903 4770.409151 5296.865745 3166.587192 16430.975844 17332.188707 16712.687022 8740.648225 14692.178267 13049.986127 11505.520373 4105.402145 13789.782529 6719.767022 6721.612254 2933.387287 2447.303114 16383.066911 15619.169547 11998.445601 16296.353124 11320.358776 9402.462161 11182.224815 9947.048645 12073.402922 12178.540561 3804.628643 4267.768298 9478.749590 16193.252454 16646.499579 15679.033381 12212.562832 12251.933474 13592.355797 12565.018650 15352.725301 10957.829826 4344.178569 12612.508117 5341.077266 2834.082075 15941.979385 16564.324422 17733.302846 13760.189355 8438.706890 6443.283951 9389.933555 9951.099635 6140.110543 8546.848979 8055.775225 2537.285567 6242.717785 15750.065226 15515.165029 15044.271535 14411.518540 8637.322397 13872.510126 11153.730355 9300.953467 10603.756597 9513.377995 2985.942611 1753.816308 4545.800146 15612.037548 15233.939100 14542.147163 11792.636617 12196.387119 10813.680509 14167.765691 10218.733888 4040.591541 13199.206979 9290.835387 5150.534599 1925.126782 15405.512222 14763.978400 14411.345161 12945.410999 13288.409149 8747.279435 10761.216943 10800.949584 1974.733943 11083.290865 7525.551439 3243.838221 979.626067 15186.353153 14187.820713 12559.046397 9183.297598 10088.627204 11763.256293 13477.024744 6131.848842 11668.589828 10872.429982 6624.890042 8866.717563 1976.499576 14931.420820 14081.984585 13186.694519 15309.013851 12328.428691 9033.028397 9585.701487 12142.028771 8414.531678 10140.750183 6553.422148 5584.783109 2451.819706 14565.514044 14278.412007 15803.826569 12912.912720 12857.276744 11720.691394 9728.699560 13006.563530 16951.832125 12410.170020 5157.471842 7546.630660 3036.556427 14327.139322 14272.455556 16720.230997 14456.210432 13667.956558 9225.190334 11571.884534 11556.082787 14614.154599 11065.217458 3991.751486 4765.645008 4841.783133 14385.021719 14836.973165 15988.239724 14656.356197 10004.349812 10551.079550 12321.010334 10127.983501 8796.460095 7265.558280 8243.123353 9174.920349 1882.822557 14286.573182 13565.392785 10667.444566 14007.006321 13590.576794 12698.824073 12560.668891 11181.020925 7911.699352 12834.549171 5912.825987 5889.197735 2273.375754 13877.259805 12920.469390 11232.724613 10980.497687 7812.263202 7982.167224 12721.391940 7114.320424 13197.644107 3365.641467 2668.031442 5019.158851 1468.418761 13576.307614 13241.724229 12057.175025 12284.765939 13410.026878 13291.863943 13434.013231 10259.981039 4853.210221 15741.126097 4903.333298 5675.913157 1331.828365 13675.696247 14741.166224 13190.933674 13475.487362 13487.267220 7304.834042 8728.975056 6327.347183 12170.789630 9619.964102 9426.144591 4356.689971 1188.730684 13714.661104 15443.249789 14962.342990 15928.074946 8338.623104 6228.354261 10247.127598 5351.864996 4220.821325 9933.651706 5119.816129 10049.785077 5928.794633 13127.844659 13329.265017 12832.984241 11589.431989 13839.372385 14855.972499 10472.976304 9250.418117 9324.648631 5777.551959 3939.669714 4491.964085 -451.544088 12328.199449 12132.805806 13385.736473 8413.112032 12139.606699 11616.159804 13848.302101 9180.056434 7923.139247 6418.100616 7926.165882 5815.063164 2242.081226 11964.040061 12899.254543 17431.887594 12324.125260 8791.317499 15841.550788 12529.809231 7358.837664 5036.279286 9220.541947 4854.239191 4650.244964 3043.191778 11972.629985 14795.470355 20214.842800 9771.745290 11108.881076 11492.888950 14145.840492 10069.867072 11623.358731 3204.229357 8144.034561 10811.171930 3673.882940 12161.989096 14160.801738 16513.624979 10982.495722 9190.216861 13694.393229 11520.469061 13497.861201 7080.005657 15516.603071 8841.200685 7474.869052 4029.797204 12112.654659 12378.205283 8966.353606 12241.022501 15890.125236 13972.229793 10443.673410 14981.480729 14383.972320 14788.291757 15044.193400 12782.948895 6614.556343 11791.440370 12071.581184 9482.261807 14254.245057 12203.167793 13066.161506 10047.538814 9465.757320 13079.030522 12801.003365 13946.247911 11143.725202 9944.272744 11501.029289 11320.206807 9422.098400 11550.245193 11969.012827 9719.880856 13727.329311 11134.312232 12190.490191 11927.536831 10013.617377 11650.093282 11948.295750
</DataArray>
<DataArray type="Float64" Name="Velocity" NumberOfComponents="3" format="ascii">