<VTKFile type="PolyData">
<PolyData>
<Piece NumberOfPoints="2177" NumberOfVerts="2177" NumberOfLines="0" NumberOfStrips="0" NumberOfPolys="0">
<PointData>
<DataArray type="Float64" Name="Pressure" format="ascii">
 16400.189129 16168.353206 15637.976732 14750.700328 13633.087447 12499.183797 11343.535815 10037.889223 8602.787149 7090.480981 5507.444950 3802.311997 1950.309188 71.983105 -1549.229591 -2706.680616 -3398.993829 -3734.742334 -3828.390738 -3769.780338 -3626.021213 -3445.539949 -3261.345530 -3094.328891 -2955.957412 -2850.121105 -2774.483429 -2721.727509 -2681.554661 -2643.802975 -2599.923371 -2543.056927 -2468.888798 -2376.111208 -2266.039299 -2141.802619 -2007.463698 -1867.268418 -1725.116872 -1584.263546 -1447.208176 -1315.719058 -1190.931354 -1073.474866 -963.601358 -861.295729 -766.366384 -678.519096 -597.430349 -522.863733 -454.947427 -394.786343 -345.178455 -309.416228 -288.014177 -278.846016 16459.730284 16374.682871 15986.762258 14852.663072 13381.710848 12321.738503 11293.548521 9905.628220 8443.399992 6912.897618 5333.806826 3645.229646 1777.975014 -204.857371 -1867.078563 -2952.982493 -3556.348404 -3827.456209 -3881.206252 -3800.314420 -3644.330604 -3457.060496 -3269.035249 -3099.793789 -2960.089068 -2853.562063 -2777.984464 -2725.945179 -2684.771745 -2644.968054 -2600.087604 -2542.862674 -2468.599951 -2375.830349 -2265.810605 -2141.643635 -2007.376652 -1867.246348 -1725.148087 -1584.334931 -1447.307346 -1315.835495 -1191.056761 -1073.602970 -963.727239 -861.414296 -766.468365 -678.578918 -597.368144 -522.430267 -453.401897 -390.657296 -337.219544 -301.043043 -281.346494 -273.607715 16605.624658 16799.144698 16970.720200 15484.673315 12795.804001 12554.680903 11051.259362 8937.018807 8089.781459 6147.596610 5158.468679 3843.061131 1946.541927 -912.593747 -2502.873494 -3264.028290 -3738.638113 -3933.334933 -3941.357898 -3834.944841 -3664.960474 -3469.912855 -3277.495584 -3105.713335 -2964.524802 -2857.362500 -2782.640005 -2734.424941 -2692.723068 -2647.107699 -2600.753138 -2543.258946 -2468.933685 -2376.119548 -2266.040131 -2141.802327 -2007.463435 -1867.268282 -1725.116811 -1584.263515 -1447.208141 -1315.718971 -1190.931080 -1073.473972 -963.598432 -861.286142 -766.334986 -678.416272 -597.093735 -521.760393 -451.364667 -382.429781 -318.471809 -284.828356 -269.910302 -264.858888 -280.611286 -265.159545 -258.762894 -244.857050 -239.325124 -236.163248 -209.677561 -208.347892 -207.107911 -180.897559 -180.540011 -180.106642 -155.946890 -155.871811 -155.704969 -134.102741 -134.108459 -134.028680 -114.955905 -114.983281 -114.933237 -98.208993 -98.240317 -98.202055 -83.608871 -83.638935 -83.606748 -70.927045 -70.954442 -70.926396 -59.953680 -59.978161 -59.953481 -50.495667 -50.517333 -50.495606 -42.375842 -42.394899 -42.375824 -35.432455 -35.449130 -35.432449 -29.518628 -29.533149 -29.518626 -24.501735 -24.514324 -24.501735 -20.262700 -20.273563 -20.262700 -16.695205 -16.704538 -16.695205 -13.704858 -13.712839 -13.704858 -11.208308 -11.215103 -11.208308 -9.132354 -9.138114 -9.132354 -7.413056 -7.417916 -7.413056 -5.994848 -5.998931 -5.994848 -4.829702 -4.833117 -4.829702 -3.876310 -3.879154 -3.876310 -3.099330 -3.101687 -3.099330 -2.468671 -2.470618 -2.468671 -1.958847 -1.960446 -1.958847 -1.548370 -1.549679 -1.548370 -1.219221 -1.220287 -1.219221 -0.956355 -0.957219 -0.956355 -0.747278 -0.747976 -0.747278 -0.581660 -0.582221 -0.581660 -0.451003 -0.451453 -0.451003 -0.348352 -0.348711 -0.348352 -0.268039 -0.268324 -0.268039 -0.205470 -0.205695 -0.205470 -0.156939 -0.157116 -0.156939 -0.119475 -0.119615 -0.119475 -0.090710 -0.090819 -0.090710 -0.068768 -0.068853 -0.068768 -0.052178 -0.052246 -0.052178 -0.039802 -0.039856 -0.039802 -0.030774 -0.030817 -0.030774 -0.024455 -0.024491 -0.024455 -0.020403 -0.020434 -0.020403 -0.018345 -0.018375 -0.018345 -0.018166 -0.018196 -0.018166 -0.019903 -0.019937 -0.019903 -0.023752 -0.023791 -0.023752 -0.030076 -0.030125 -0.030076 -0.039436 -0.039497 -0.039436 -0.052618 -0.052696 -0.052618 -0.070682 -0.070782 -0.070682 -0.095018 -0.095147 -0.095018 -0.127420 -0.127585 -0.127420 -0.170174 -0.170387 -0.170174 -0.226169 -0.226439 -0.226169 -0.299019 -0.299361 -0.299019 -0.393219 -0.393651 -0.393219 -0.514322 -0.514864 -0.514322 -0.669146 -0.669822 -0.669146 -0.866010 -0.866848 -0.866010 -1.115004 -1.116038 -1.115004 -1.428300 -1.429569 -1.428300 -1.820495 -1.822046 -1.820495 -2.308997 -2.310881 -2.308997 -2.914450 -2.916727 -2.914450 -3.661199 -3.663938 -3.661199 -4.577798 -4.581076 -4.577798 -5.697551 -5.701455 -5.697551 -7.059093 -7.063718 -7.059093 -8.706994 -8.712447 -8.706994 -10.692392 -10.698791 -10.692392 -13.073641 -13.081113 -13.073641 -15.916958 -15.925643 -15.916958 -19.297072 -19.307117 -19.297072 -23.297841 -23.309406 -23.297841 -28.012841 -28.026093 -28.012841 -33.545893 -33.561007 -33.545893 -40.011508 -40.028665 -40.011508 -47.535241 -47.554625 -47.535241 -56.253910 -56.275709 -56.253910 -66.315670 -66.340068 -66.315670 -77.879902 -77.907080 -77.879902 -91.116895 -91.147025 -91.116894 -106.207292 -106.240534 -106.207288 -123.341266 -123.377759 -123.341252 -142.717403 -142.757255 -142.717356 -164.541262 -164.584529 -164.541109 -189.023608 -189.070226 -189.023108 -216.378343 -216.427940 -216.376718 -246.820313 -246.871589 -246.815028 -280.563609 -280.612344 -280.546420 -317.822481 -317.855043 -317.766586 -358.821881 -358.793821 -358.640144 -403.841696 -403.605091 -403.250790 -453.370087 -452.419104 -451.450454 -508.868191 -505.205160 -502.601374 -571.763086 -558.084228 -551.988475 -605.660073 -583.284802 -573.394283 12747.079848 12997.232237 13754.610581 15073.751463 11959.519616 13043.400305 12776.693637 10732.177166 12446.072039 10135.774595 8542.133744 7864.598410 7174.622722 7143.289418 6071.990730 754.350436 -741.921991 -1435.793106 -1838.838760 -2111.453111 -2308.698744 -2453.074335 -2556.065772 -2625.099233 -2665.944159 -2683.587974 -2682.502167 -2666.641398 -2639.348049 -2603.262862 -2560.294010 -2511.659914 -2457.996034 -2399.502708 -2336.107762 -2267.620759 -2193.862281 -2114.759047 -2030.402373 -1941.072600 -1847.235432 -1749.517706 -1648.670337 -1545.525386 -1440.952751 -1335.819936 -1230.955295 -1127.108719 -1024.886181 -924.573231 -825.642968 -723.102350 -632.960791 -594.554683 -578.004072 -571.881143 12301.583125 12357.369670 12505.162061 12066.869511 10599.053537 11405.418413 11153.410719 9741.171907 9711.530843 7569.938214 6959.919136 5621.811399 4458.522393 3377.249404 1905.288450 274.009215 -828.470107 -1449.378316 -1840.219493 -2110.910365 -2307.983422 -2452.437587 -2555.524910 -2624.645294 -2665.569374 -2683.285746 -2682.264731 -2666.458853 -2639.208744 -2603.154556 -2560.205201 -2511.580948 -2457.919787 -2399.424810 -2336.026428 -2267.536346 -2193.776700 -2114.675138 -2030.323335 -1941.001530 -1847.174990 -1749.469933 -1648.636625 -1545.506682 -1440.950253 -1335.837249 -1231.005208 -1127.235157 -1025.236310 -925.646052 -829.090216 -736.847335 -657.520542 -611.346705 -588.825023 -580.263245 11989.356456 11960.089114 11739.374008 11369.551640 11052.559004 11093.345063 10531.589375 9387.725273 8226.744343 6920.602833 5663.079206 4421.676904 3263.843460 2186.164557 1030.860542 -75.444096 -909.292471 -1467.842447 -1844.832146 -2112.533068 -2308.889166 -2453.107157 -2556.071091 -2625.099926 -2665.944159 -2683.587915 -2682.502128 -2666.641379 -2639.348040 -2603.262858 -2560.294009 -2511.659914 -2457.996034 -2399.502708 -2336.107762 -2267.620760 -2193.862282 -2114.759049 -2030.402377 -1941.072614 -1847.235480 -1749.517861 -1648.670843 -1545.527037 -1440.958137 -1335.837504 -1231.012596 -1127.295616 -1025.495568 -926.563590 -832.065267 -745.520164 -673.832328 -624.933711 -597.718656 -586.677996 16664.871397 16909.490197 17029.026830 15258.252790 11866.926507 12724.615918 10831.546019 8429.280315 7606.626038 5323.311093 5873.983039 4673.152157 2412.661038 -1837.450080 -3221.876933 -3367.765561 -3794.066364 -3964.917057 -3959.342464 -3845.245543 -3670.918452 -3473.390254 -3279.548980 -3106.951512 -2965.320644 -2858.030824 -2783.923856 -2738.694757 16710.476933 16608.206656 14883.791669 13918.256709 12946.980538 12029.225313 15940.599955 15355.752456 15522.689498 13413.666153 12646.447258 11846.165788 15900.565487 13047.924685 12368.636146 17276.138172 11630.079925 14155.240171 11966.869378 15545.271622 15516.998537 14428.026288 14560.305201 10680.187958 9688.773635 13381.433344 3846.532457 4534.650566 16848.204015 16598.187428 14538.745272 10275.682737 11850.402727 12748.795274 11326.299480 13060.741997 12905.407767 15704.454467 12554.098699 13085.911312 14671.011727 12220.128018 13889.977588 14155.327339 12624.346231 14345.980230 12926.878943 11924.904097 11541.487490 15719.809366 14305.972344 13206.694392 14855.298356 11807.533280 11174.819264 10517.516495 17117.104855 17048.617735 16124.153027 15233.501172 15789.703364 11016.001708 11850.410378 13928.639320 16071.288408 13150.752417 2148.014720 7308.813705 11532.053648 10357.898783 12125.381469 11083.791238 9139.872076 10707.702791 12232.632128 9905.870612 13911.029196 7240.786398 7601.557594 13002.968694 13493.718849 9143.290990 13056.441589 8085.965872 17406.965881 17081.912322 15888.844334 15331.359765 7971.573428 13687.529732 12189.981425 1042.360668 13206.476122 5349.015718 9245.305817 12911.511241 13340.407468 14213.938558 5903.461729 7411.568329 13820.701113 8645.870718 8131.744240 11820.733479 3896.038012 12148.560949 12286.316588 5866.608234 5957.636466 4848.165729 2553.413301 8467.245733 17787.069634 18781.820672 17055.892362 16326.171536 13732.239958 12017.434761 15721.602398 12847.990745 14546.774591 10039.919686 9035.838138 11597.774748 11462.069013 9704.151416 8366.436351 14657.344944 8846.700259 6664.337609 14895.242784 12720.365533 7433.255787 14244.543497 12736.763798 11481.376062 12585.250748 7001.595458 5369.343062 4501.974057 18064.236677 19122.144216 17185.816775 13750.047562 12365.211480 12331.507429 6434.087327 9969.091790 10623.583270 7962.447411 8857.919654 13065.606932 13864.682129 13733.413841 10059.393033 7637.344957 7981.393847 11995.650731 9803.726494 9567.556267 4339.561027 12668.561743 12121.130456 11996.403541 5419.972069 9750.484771 7752.495063 4310.716766 18188.676642 18113.240137 14578.127776 14113.420528 14050.018763 12793.585872 13995.711949 13309.277655 12515.244700 12148.234916 13445.104761 12459.740804 4247.173967 5208.195966 11322.725572 12723.004467 7192.810260 11085.455623 7731.976524 6914.095564 11325.904163 11417.540707 5609.957193 3521.570715 9563.911515 4622.759144 3367.179426 8698.723749 18195.990702 17141.859556 13942.674854 16463.444694 17016.172560 16885.611373 13196.842582 13645.372808 8853.716466 5144.580065 7485.091036 10462.596666 10217.632748 13848.389455 10065.030750 3345.701097 6717.018625 1658.566921 6487.138721 5002.166469 8698.832806 9655.429824 3727.936404 7352.495679 5336.382280 5112.188838 5623.449599 1542.050769 18273.735901 17433.414008 15507.028492 17104.303167 13241.172126 11162.646704 13833.996085 13099.354291 1966.845401 13326.699120 1081.654458 6670.273781 2875.080915 5739.534511 1862.912850 9842.429488 7595.514026 3435.190418 12352.544140 7302.343103 11998.252423 9505.048791 5629.785655 8401.336720 10105.636803 7682.075124 3141.020352 2351.715581 18374.991256 17196.926494 14835.791704 14120.004776 12444.838005 15526.916023 11403.244017 13933.863518 9157.341368 14082.342210 10292.755034 13284.199761 7300.012679 6537.616914 13785.046662 2689.765128 2753.814002 6761.778156 11762.046812 5787.978319 8242.586489 2890.647926 2009.553528 4825.534988 8696.281386 6307.513376 5070.356047 2251.587955 18352.021659 17921.512236 16415.205904 15077.260290 13254.726825 13764.831284 13756.465349 10927.777559 9229.216239 8715.553457 5647.920558 11426.238656 11087.376942 8469.614066 8250.033931 15018.317197 13100.605774 10049.753259 4318.808189 2123.093484 4424.411286 5548.296813 10176.698817 10409.259288 5632.088386 7800.733560 2709.694713 6343.165904 17985.981701 18149.122654 18356.809765 14034.008479 14309.803666 9992.466744 15897.468258 9634.125382 10478.869482 10305.425458 9511.955204 5302.029425 6382.050671 3612.725278 8549.320503 10287.410416 6856.458579 3984.091054 7707.077532 12528.008721 8416.871190 8852.887133 7649.916088 4747.739211 10020.743917 10853.661047 3283.746450 6230.738912 17613.587506 18633.753305 20638.402869 13072.015366 13745.925314 5886.440220 15284.513503 14144.256125 7018.429031 14676.747347 12068.345380 3776.743186 7473.336175 2701.580252 4572.015680 4205.183747 3776.753371 2923.002066 12112.071310 6316.166430 15402.407841 2458.521374 12812.902749 5438.706107 4624.361569 12505.930555 4369.255634 4905.652366 17539.757033 18183.165042 17622.660900 12568.679959 11072.754389 15411.649363 11365.839795 13928.978870 6471.912625 13626.173262 11964.009508 6356.080660 7929.234329 2615.402505 1733.717502 856.106584 4978.817155 4033.752606 3943.981707 2327.864663 1732.359597 4221.254498 1060.800815 3319.270177 1173.220762 3461.376262 3805.894358 4497.829736 17735.736644 18285.841697 17582.945854 16954.470210 16001.986137 14751.370309 13965.575484 14061.671823 7202.023696 5941.805037 10381.539905 7781.963215 3228.089154 17979.066776 17807.564117 16051.899211 11701.376143 15141.712047 15475.928139 14404.919251 11016.454700 12915.548728 11640.335208 3015.054480 3722.476120 2215.681416 18265.889368 17303.846352 15368.104119 12061.882000 12675.548300 11750.618387 12788.814979 7298.169040 4991.788572 6649.857807 6052.378803 7013.618644 1263.351307 18523.803658 17604.337441 16759.693560 13817.360523 12586.581355 8404.541197 10008.653694 9748.123784 6353.887057 9644.971704 8043.558700 14606.877325 2864.319975 18613.154074 18163.019245 16628.778668 10950.083806 9605.601459 9050.382015 7755.601706 16823.991822 11141.934442 10278.001168 2154.742909 2060.994352 2637.776139 18791.377194 18408.930688 16228.727545 14582.906698 14137.980551 12684.341003 12290.454155 12119.008108 10971.250947 4953.571679 5754.073030 2997.546923 3547.617514 19108.034200 18612.663617 17105.234871 18737.520204 17555.768674 12787.335455 12409.968151 7341.659342 5233.066014 15378.695147 3986.465985 8687.082782 2916.251865 19267.859598 18640.294038 17149.476213 17528.746048 17614.160397 20246.887055 10095.189840 4847.184410 9388.450135 5700.153215 5777.183505 3478.775619 3830.844241 19256.596164 18479.337368 16918.317211 16985.422092 18446.928601 16276.277336 9208.880590 12452.776602 13082.191619 6977.213379 6939.692075 3110.364406 5381.303793 19232.903390 18989.845469 17703.234303 8887.007672 14558.075663 13777.284092 14307.363690 13180.740990 8726.363306 8460.527636 8511.362587 9236.738753 3165.506443 19192.445207 19100.358869 18454.637598 14657.878553 11839.652439 11652.102662 15927.844535 4909.911763 3269.150951 8365.088640 8659.655591 11608.020731 5739.813594 19071.404361 18551.888268 17458.107838 12827.018606 13152.052462 14871.918167 4642.364886 9115.207879 11576.948631 13852.239319 3234.096556 8268.250820 2622.718522 18938.832355 18476.383748 17962.207124 17027.551166 16005.228539 21917.017422 13555.621323 13323.791621 11035.273873 8797.285044 17272.535504 6708.364231 3512.698305 18898.863062 17998.492875 16429.244062 17670.952969 9395.114448 14780.540763 6063.858729 3367.410183 9480.960039 14794.317460 9141.407888 5699.218173 1399.528465 18939.126359 18475.248163 16830.118101 8722.762048 14131.348247 17341.533438 7314.323552 11913.323163 7668.400388 5978.732702 7296.390267 11279.900064 2839.606656 18867.922947 19839.360952 18914.065825 15220.193387 13045.863136 17882.077560 13019.189801 13319.041605 12363.919673 8443.241937 6619.938617 10495.304737 3645.248175 18898.838788 19370.263579 16440.486076 12439.746044 10218.711159 12653.457604 7059.106103 14295.812084 6144.004531 13270.047230 6520.948956 8195.480645 2410.939960 19239.394809 20980.784004 20552.686350 18694.795285 17803.683202 14940.551911 10641.937848 18359.506864 13213.245448 10840.606125 9778.078818 6619.426492 4572.181048 19401.573858 20801.064761 20607.186296 18425.249252 12320.680045 14363.661809 10323.567273 6632.853756 8588.216259 10001.638320 8660.047020 9226.789311 7065.141209 19447.199514 19985.101444 20546.509144 18351.313181 20253.268942 14839.419928 6443.524662 13003.713575 5322.385544 16525.131696 7572.348669 3678.610363 3155.048100 19550.972341 20216.785588 19717.428411 16117.970247 17948.529129 10726.170415 13017.357378 10424.093568 7955.331842 4630.250530 5087.010034 5207.894820 4766.564719 19553.555790 19303.125670 17707.093900 17255.175069 14970.541536 17926.813902 12833.585063 17055.844071 6926.328882 10109.487032 11029.824672 5127.810761 6843.891504 19569.423470 18151.444290 16640.779386 18604.971259 19412.756041 14810.631229 15326.118597 16528.689063 7249.147225 12630.585411 4273.293320 2847.006478 4316.132340 19899.214031 18774.238324 17729.489127 19101.162505 20384.040122 15024.995938 13198.951102 13481.801823 18572.340511 15688.263697 8560.322725 5495.262553 4464.342800 20317.045986 20630.983211 18968.741085 18166.452164 19350.444648 14860.928406 13035.465825 13429.290818 14162.182502 5750.318862 4547.929103 7551.054803 3022.773263 20377.717681 20934.347442 19054.301705 19055.106029 16031.415265 5588.876591 15884.960196 14048.700064 15175.062765 5023.141331 10230.396198 3632.061880 14292.954813 20449.840089 21247.027665 20562.214056 14084.270607 17201.474360 13236.372315 8820.780342 10103.859672 8367.321750 4704.326215 6894.323929 3543.336119 7500.327716 20388.285045 20860.067974 20050.468071 15232.756922 11342.572763 7699.926434 11425.524420 9945.699625 14670.674468 8695.183061 5121.990076 11010.126242 1848.395759 20134.112089 19103.968672 18668.508625 16484.510337 18529.069753 14753.616899 7817.904156 14797.196377 12441.736386 9923.194759 7074.755221 1068.310254 3899.487114 20147.807171 18719.218479 20482.431790 18585.604634 20719.795331 15671.419014 14401.874658 17276.031262 11386.488781 11643.442015 8914.624709 7658.216564 820.715491 20754.458508 19041.878705 18748.090062 20965.390528 13415.726318 13975.634935 15747.363281 9420.993325 8010.208361 6523.016655 8189.347049 4576.926269 7803.920113 21493.922038 22893.398483 20303.925940 21517.623744 21546.741288 12189.772651 17773.187356 7208.370246 4515.982211 11467.686958 6467.866843 9373.992987 3577.709573 21567.589781 23287.665013 19260.228403 18420.484321 15876.298534 13198.739169 9591.336859 4554.743941 5334.482871 4206.772779 6818.488885 8023.125243 5266.029630 21121.152009 21312.587701 19392.825158 19489.412888 14802.971687 14249.976386 15524.493335 15868.753289 14848.962059 10660.902795 6081.531237 5726.879239 2507.708612 20552.470224 20839.126143 21396.921739 18266.730487 20436.792114 16914.919445 11595.541901 15098.188166 8557.776910 4518.842762 5109.211678 5403.674487 8113.295719 20507.645141 20911.171068 23965.215615 14864.589387 10730.824531 16538.068992 19529.738749 9196.642330 8640.324937 3959.270223 10973.730958 7302.628893 4855.549592 20677.120000 20919.446627 21781.027751 19533.836982 19113.377287 17078.921518 9855.901407 6258.693872 5669.818890 13075.847638 6022.758138 4227.671596 4117.909687 20812.083672 20431.506030 19157.630308 18287.416542 18792.566204 12529.077410 17270.300378 10336.901138 8599.794562 10198.594477 9935.292455 11175.682317 8131.469092 21206.580064 19777.701359 18424.428277 19265.967143 17981.918018 17370.390962 13149.039452 17055.216633 12456.002368 2003.808946 10226.459720 7800.253605 8997.763454 21544.336451 22082.743239 20895.040205 18065.671753 16374.976774 17728.002266 15696.256402 13385.337041 6352.542808 10574.579641 8407.547535 10029.736401 3519.880590 21679.926545 22129.807985 20133.786085 15597.264795 16110.961840 14432.459163 13654.322287 11999.829257 9134.221261 13778.631055 8641.154364 12744.659747 3567.795962 21723.905330 21094.021616 19337.989392 18697.181242 22558.575334 16376.655564 14471.594009 10021.291739 14668.040291 9511.145348 5691.246786 3338.801225 4066.327136 21699.235467 20325.906762 17211.137227 16672.254503 19567.210829 21368.482182 14878.698075 18061.891188 13534.825042 9267.271750 8046.942668 17714.050329 7191.254525 21473.853613 21170.530723 19100.536193 17727.269529 13640.394272 8568.207237 18436.407442 15172.445973 11548.002692 8872.613337 9357.461469 7368.500266 2144.092278 20763.708666 22097.347926 22158.072573 20288.849200 22537.228024 15246.696983 10334.473836 17667.055392 12256.193387 3933.768495 5460.489336 8121.075218 416.138423 20445.684796 20415.575313 22920.107497 16414.154418 19083.792331 15102.714676 12448.563310 11060.843235 4217.036010 12191.868506 11347.030927 4018.371930 3917.250814 20688.685868 18515.230980 17545.676222 16840.724461 17857.278958 16933.036369 16295.541834 11775.355924 8765.592360 8864.768091 8415.487094 6446.984493 8742.630750 20780.724540 18434.708095 14452.501865 18086.496458 14861.247328 16545.298024 10551.910043 11136.231180 9436.079113 9760.213571 8245.664694 10435.008210 3506.833114 20783.809225 21040.007842 20241.890762 22008.593092 17848.676866 18806.340265 10652.809547 8054.219256 7400.123498 9288.708915 5939.569491 6560.245430 2242.198268 20362.103339 22820.381286 20907.901820 22578.136818 18540.709078 13989.414257 12200.102887 13468.985648 13238.328187 10731.005522 13967.147648 1849.382817 2622.803356 20013.210726 19917.780828 19107.464380 19881.339657 14132.383359 22157.519332 6522.149088 12283.493455 10823.306105 9567.634177 14899.269083 7859.152699 8060.335833 19849.672803 21673.783523 25438.630374 22102.564989 21278.013968 10988.325219 15909.589487 11354.630424 11026.780182 8099.724965 5646.750050 5956.748642 4116.806472 19909.457162 17957.869516 17721.891006 19190.340776 20061.333441 10861.085184 14198.855879 10940.191744 12702.368685 6655.508364 13804.122144 4909.462550 6372.364216 20263.241311 18527.502585 19026.868364 20248.327015 16314.384611 17319.871029 8095.046096 12358.341076 14762.442207 5542.213686 11492.006519 10676.007014 3977.663434 20394.424092 19233.843186 19905.281090 20508.148193 16899.869040 10609.996199 14188.143759 11744.459618 9291.376362 7495.291559 8703.554526 10455.228279 4756.611424 20307.448693 20067.803758 19697.689772 20452.952638 16628.983164 15066.374681 15751.938092 14052.503593 15658.053392 11840.708017 10139.011714 9931.069596 7554.607805 20021.484856 21506.054518 22674.123739 19172.605531 9886.774420 13547.909133 10988.923977 13613.160912 9098.480817 4543.617182 7375.510685 7874.631462 7298.393319 19672.407793 20066.824263 17408.207727 21073.146873 11602.199348 20297.569904 18615.760787 20308.619692 16146.880218 12972.004483 12851.051884 6179.865095 695.036249 19429.548019 20045.181734 20682.876804 16733.342499 13995.310581 8346.480487 15144.960204 13645.035747 8442.397397 9899.245899 8738.833446 8385.357073 3458.213159 19197.733527 18913.766825 19758.104817 17939.781530 21098.688767 15197.779297 15291.534494 11299.279718 9226.021276 9472.621044 6563.521474 9291.350198 3989.716591 19223.475189 19601.526846 19614.416578 22009.046237 13282.548473 15466.355804 15577.205633 6552.668707 10085.444615 7547.233395 5238.294766 9772.492846 5092.427961 18719.903775 21334.509009 20696.411119 12330.033460 18064.573299 17963.682048 15962.984067 6880.827409 15037.615391 10563.113851 11061.600375 6304.659846 3516.616474 18041.210056 18142.401720 18133.779947 17054.750292 11832.072098 11637.850355 17548.601544 12600.188100 13141.624902 15343.543210 4660.727861 3563.206880 8312.614066 17776.970465 19157.195227 21411.738662 17527.806807 12333.432514 15433.916158 16788.765160 13115.265238 9371.982201 5690.924202 12146.305528 5551.879690 6319.590977 17327.951973 18233.689127 19775.418675 20756.483016 15442.930937 13667.988339 7663.960145 11727.001846 6654.975199 12389.296552 8002.734276 4266.422599 7154.906709 17151.993829 16822.399090 17459.885167 20687.582467 15038.656873 13772.812959 13039.004175 8171.213015 12611.639039 8898.539593 6109.536590 5659.445789 3638.150543 17402.405563 17342.170155 18176.249761 16389.808551 12490.783033 15734.900368 15022.951342 12648.661523 9292.865439 14751.274090 10994.456859 2041.356467 3482.481356 17614.333481 18813.808984 20198.017105 16242.176802 15999.487209 12809.631946 14223.796584 13335.338190 7100.261268 10927.694706 7245.916929 7966.265949 4735.445685 17350.704102 17699.857585 17677.094769 16442.731676 9493.124367 13980.438629 18355.124433 5861.012906 11206.389530 10970.510818 7869.734010 7982.363380 1536.953506 17039.286706 15971.530909 15545.383779 17298.156326 16267.372799 13168.334939 11564.157726 10818.747839 15547.573764 11096.092849 10199.176179 7058.881584 6019.319515 16897.330692 15469.585261 15663.474894 12846.045508 14570.600717 15482.071165 12876.024126 14132.504384 12818.397025 15654.800915 3475.099079 12224.201534 2498.148541 16941.616434 17359.488394 17660.435871 18512.764014 13167.600749 8528.732839 15034.198700 10445.483061 15261.301792 12190.633916 5534.683822 5374.345727 8429.022813 16893.938960 18303.847589 19544.683315 12473.429029 15621.869155 11742.242663 13575.426161 12820.751780 12742.558291 11747.301186 11904.672679 14018.470106 4033.555631 16855.907360 16446.060963 14318.615274 21711.902278 20655.917205 13975.138361 14461.967343 8720.536856 10119.050184 12552.176455 11646.961304 5546.987046 2525.655459 16974.755516 15909.159837 13962.922377 18203.817406 11498.435274 9833.334146 10780.330241 12225.768773 14547.803492 8006.201716 7147.205411 8216.536130 4034.948292 16897.208454 17431.256033 17491.177051 14452.509490 13050.396746 14205.202943 13490.481612 12050.710287 7129.609148 11043.220407 11814.046194 5488.826393 4340.008288 16624.529458 17674.338691 19243.043189 18808.079340 19390.387976 13504.534123 18063.547766 14837.334502 10504.869533 17682.516237 8717.611287 7541.710808 4719.315436 16348.145441 16629.814013 18713.799224 18757.073696 15982.341940 10880.477107 11019.369206 11922.530306 10405.331103 12536.060571 14157.387988 11496.507603 4097.375397 16001.936920 14864.197045 13312.092115 17474.296405 15262.907859 15070.136283 10786.661865 12853.832535 14204.734791 7451.780981 7795.537039 7052.304668 2062.186569 15567.144774 14948.866466 14216.676259 9859.496965 14834.843103 16506.042387 15916.289023 9493.149674 9672.254640 14282.099277 14571.608797 4184.304590 4387.566228 14821.506889 14204.361061 14895.453572 13953.272054 11305.935399 12401.345986 8430.644994 15021.275875 7653.398150 13170.970874 1578.766534 4298.596452 3088.950139 14221.167046 14814.723057 18030.799595 10784.271622 16974.067367 14136.443547 11213.317254 12461.448384 17557.466249 2515.171770 13158.702360 12800.662263 16013.767493 14029.739281 15276.042971 15614.869531 13291.993751 12114.758646 8966.294182 17770.754480 13640.315280 11403.217722 13421.100361 14842.586447 12887.157848 6887.992975 13988.015603 13398.630285 9782.420274 18084.074995 18397.187386 19257.317614 16804.518318 18312.771878 16290.440550 18748.800265 18393.683349 13785.127582 15305.736510 13382.592817 13191.339441 12195.464963 20714.119528 17137.105197 17013.961379 15080.190835 13646.216787 14090.568194 15502.861763 14723.248599 14925.170476 14315.489815 12747.079848 12997.232237 13754.610581 13980.672949 15083.604250 14242.156178 18887.168643 15734.173195 16783.814543 17002.892758 14689.612497 18283.031999 14984.566170
</DataArray>
<DataArray type="Float64" Name="Velocity" NumberOfComponents="3" format="ascii">