<VTKFile type="PolyData">
<PolyData>
<Piece NumberOfPoints="2177" NumberOfVerts="2177" NumberOfLines="0" NumberOfStrips="0" NumberOfPolys="0">
<PointData>
<DataArray type="Float64" Name="Pressure" format="ascii">
 20722.740015 20690.570179 20606.707576 20449.183907 20114.913380 19534.363495 18731.954878 17772.598973 16683.026326 15576.936796 14502.219484 13444.032111 12370.622933 11192.467872 9959.480981 8769.837984 7445.705450 5606.882253 3417.309108 1776.125682 1112.285731 1075.917015 995.825765 495.581085 -288.257268 -1076.481494 -1682.259235 -2033.175470 -2171.018573 -2211.919231 -2232.252653 -2231.029611 -2184.100038 -2084.403296 -1943.926024 -1781.297600 -1612.306708 -1446.938081 -1290.306781 -1144.556178 -1010.321520 -887.542529 -775.839303 -674.673911 -583.423686 -501.420129 -427.973574 -362.392988 -304.011410 -252.241857 -206.731365 -167.710799 -136.393958 -114.247831 -101.134858 -95.518749 21059.618979 21055.513438 21103.808458 21143.572657 20867.060882 20447.009988 19856.326642 18955.393270 17654.235128 16374.801124 15149.034272 14002.287713 13015.199594 11777.200075 10565.568428 9617.398948 8576.705554 6242.131151 2298.321556 -368.166563 -719.451058 412.099221 333.293333 -887.470444 -1779.033220 -2336.577394 -2637.166259 -2661.716475 -2495.260785 -2337.339705 -2269.967154 -2239.081541 -2184.463130 -2083.607884 -1943.406228 -1781.138624 -1612.361786 -1447.090085 -1290.494047 -1144.751623 -1010.514076 -887.727499 -776.014428 -674.837911 -583.575573 -501.558347 -428.093809 -362.481332 -304.022622 -252.033154 -205.876710 -165.377582 -131.933395 -109.745909 -97.744690 -92.976329 21671.851444 21750.926615 21990.151090 23216.138005 21936.128979 19866.298497 20202.303225 21194.240393 18983.805974 18952.418927 17642.495834 14938.337202 14585.358720 12378.204919 13396.840120 11606.033914 11755.019565 7587.209724 -1367.423878 -5645.743678 -3498.428638 -594.926425 -5386.109052 -5142.308704 -4894.653157 -4308.050369 -3929.657573 -3517.503663 -2960.593779 -2483.596101 -2310.090160 -2248.842212 -2186.663755 -2084.160017 -1943.552205 -1781.112728 -1612.238681 -1446.917205 -1290.301252 -1144.554898 -1010.321251 -887.542440 -775.839147 -674.673413 -583.422047 -501.414733 -427.955817 -362.334565 -303.819281 -251.609231 -204.668962 -160.548208 -121.200730 -100.966335 -91.968379 -88.757242 -99.188400 -90.008694 -86.053942 -80.562943 -77.321995 -75.373673 -63.624804 -62.844352 -62.098252 -50.856147 -50.648978 -50.388598 -40.594840 -40.552216 -40.452540 -32.264734 -32.267765 -32.221389 -25.503855 -25.518032 -25.490656 -20.040701 -20.055978 -20.036682 -15.652118 -15.665772 -15.650895 -12.149378 -12.160873 -12.149005 -9.372171 -9.381607 -9.372057 -7.184934 -7.192573 -7.184900 -5.473887 -5.480010 -5.473877 -4.144331 -4.149198 -4.144328 -3.118130 -3.121968 -3.118129 -2.331369 -2.334374 -2.331368 -1.732210 -1.734545 -1.732210 -1.278966 -1.280768 -1.278966 -0.938388 -0.939767 -0.938388 -0.684175 -0.685223 -0.684175 -0.495688 -0.496479 -0.495688 -0.356864 -0.357457 -0.356864 -0.255298 -0.255740 -0.255298 -0.181484 -0.181810 -0.181484 -0.128196 -0.128435 -0.128196 -0.089980 -0.090155 -0.089980 -0.062757 -0.062883 -0.062757 -0.043492 -0.043582 -0.043492 -0.029949 -0.030014 -0.029949 -0.020493 -0.020538 -0.020493 -0.013933 -0.013965 -0.013933 -0.009413 -0.009435 -0.009413 -0.006318 -0.006334 -0.006318 -0.004214 -0.004225 -0.004214 -0.002793 -0.002800 -0.002793 -0.001839 -0.001844 -0.001839 -0.001203 -0.001207 -0.001203 -0.000782 -0.000784 -0.000782 -0.000505 -0.000507 -0.000505 -0.000324 -0.000325 -0.000324 -0.000206 -0.000207 -0.000206 -0.000129 -0.000130 -0.000129 -0.000080 -0.000080 -0.000080 -0.000047 -0.000047 -0.000047 -0.000025 -0.000025 -0.000025 -0.000008 -0.000008 -0.000008 0.000007 0.000007 0.000007 0.000023 0.000023 0.000023 0.000043 0.000044 0.000043 0.000071 0.000072 0.000071 0.000112 0.000112 0.000112 0.000170 0.000170 0.000170 0.000253 0.000254 0.000253 0.000372 0.000373 0.000372 0.000537 0.000538 0.000537 0.000764 0.000765 0.000764 0.001066 0.001067 0.001066 0.001457 0.001458 0.001457 0.001946 0.001947 0.001946 0.002527 0.002529 0.002527 0.003171 0.003171 0.003171 0.003800 0.003798 0.003800 0.004261 0.004255 0.004261 0.004280 0.004266 0.004280 0.003392 0.003367 0.003392 0.000855 0.000812 0.000855 -0.004487 -0.004557 -0.004487 -0.014370 -0.014481 -0.014370 -0.031349 -0.031517 -0.031349 -0.059095 -0.059346 -0.059095 -0.102785 -0.103150 -0.102785 -0.169587 -0.170107 -0.169587 -0.269257 -0.269986 -0.269257 -0.414870 -0.415875 -0.414870 -0.623680 -0.625044 -0.623680 -0.918129 -0.919955 -0.918129 -1.327000 -1.329413 -1.327000 -1.886715 -1.889860 -1.886715 -2.642751 -2.646800 -2.642751 -3.651180 -3.656331 -3.651180 -4.980273 -4.986751 -4.980273 -6.712163 -6.720222 -6.712163 -8.944503 -8.954420 -8.944503 -11.792086 -11.804167 -11.792086 -15.388383 -15.402954 -15.388382 -19.886949 -19.904360 -19.886948 -25.462673 -25.483287 -25.462668 -32.312821 -32.337016 -32.312807 -40.657885 -40.686039 -40.657840 -50.742189 -50.774666 -50.742043 -62.834288 -62.871372 -62.833811 -77.227179 -77.268895 -77.225624 -94.238496 -94.284013 -94.233423 -114.211254 -114.256960 -114.194699 -137.517134 -137.550322 -137.463121 -164.569048 -164.547079 -164.392849 -195.866250 -195.645843 -195.291485 -232.146621 -231.236341 -230.273481 -275.104390 -271.587517 -268.969504 -326.938758 -313.732050 -307.533525 -356.488254 -334.472596 -324.564362 11502.364261 11198.680550 9928.030208 9664.588739 8808.130519 5918.768035 7738.107330 7493.470179 6415.338871 3310.207925 2897.241067 806.457481 -1927.973741 -2261.943697 -2468.318706 -2621.458389 -2741.805613 -2879.858362 -3026.043448 -3170.892606 -3306.499146 -3426.328332 -3525.840132 -3602.267401 -3653.975593 -3679.966576 -3679.678883 -3653.018163 -3600.499999 -3523.394329 -3423.787874 -3304.520529 -3168.995879 -3020.903423 -2863.911490 -2701.391930 -2536.223352 -2370.695829 -2206.514649 -2044.880672 -1886.613983 -1732.286666 -1582.337312 -1437.151071 -1297.100562 -1162.551941 -1033.844545 -911.249348 -794.894097 -684.581008 -579.305062 -473.665281 -383.397367 -345.581406 -329.233990 -322.946251 11219.505626 10923.164845 11128.742011 12165.369141 11419.264167 8464.949840 8982.169082 8305.763910 6239.797108 4493.287638 2818.833795 817.062515 -884.581784 -1784.898788 -2316.842374 -2552.670016 -2716.598382 -2870.923010 -3022.746184 -3169.545474 -3305.808893 -3425.844119 -3525.411581 -3601.847286 -3653.550682 -3679.535737 -3679.247134 -3652.595049 -3600.098315 -3523.028172 -3423.470212 -3304.260915 -3168.798923 -3020.768348 -2863.832782 -2701.360782 -2536.229474 -2370.729163 -2206.566666 -2044.945062 -1886.686759 -1732.365817 -1582.422239 -1437.242085 -1297.198900 -1162.661323 -1033.977358 -911.447587 -795.298780 -685.672448 -582.677251 -487.037056 -406.712735 -360.653574 -338.258672 -329.604864 11048.099601 10815.663749 10280.679975 9810.274618 9198.806673 8389.630584 7900.084047 7111.367841 5872.546031 4414.996655 2799.401557 1077.057749 -487.802124 -1579.895771 -2174.395828 -2486.793957 -2691.988685 -2862.082052 -3019.577207 -3168.529582 -3305.651085 -3426.031636 -3525.738425 -3602.232909 -3653.963927 -3679.962625 -3679.677543 -3653.017709 -3600.499846 -3523.394277 -3423.787856 -3304.520522 -3168.995876 -3020.903421 -2863.911489 -2701.391930 -2536.223352 -2370.695830 -2206.514653 -2044.880685 -1886.614028 -1732.286810 -1582.337786 -1437.152624 -1297.105646 -1162.568583 -1033.899020 -911.427629 -795.477267 -686.491772 -585.486804 -495.351058 -422.202389 -372.996892 -345.794862 -334.721484 22160.583199 22504.622571 22897.044008 24535.230097 22924.818044 20150.693528 19622.728104 21834.702779 19756.336134 21643.999561 19959.373129 14657.791500 15676.650616 12294.147791 12970.221004 9211.406963 12752.017126 6160.561977 -4563.704070 -10572.897413 -5518.041147 -3691.979739 -17692.445075 -11102.974928 -6497.028603 -5048.827577 -4353.035929 -3836.442646 23533.062797 25444.315642 27600.126453 24361.990009 23353.302540 30450.362357 29332.466201 34243.603436 33712.917361 27472.575359 25026.860172 24850.190660 23755.147947 25441.590941 19423.435254 21124.901486 23314.223367 29129.932409 29045.180394 25373.122332 26718.234754 23759.289124 20047.461009 30276.200018 21084.354419 24604.689078 16403.966914 7209.523193 24671.366190 26963.129031 31563.956879 22257.250562 24219.671281 25341.318743 24646.828585 25172.850319 36466.966326 25498.850246 24422.007203 22452.870790 32336.679501 26932.711331 22605.870466 30211.803738 18974.675110 22970.911328 22805.359235 24700.634609 27130.899984 39543.868236 25351.081315 26073.871324 32659.610980 20840.035033 21002.035036 22804.911223 24682.252444 27505.283617 35039.680113 25926.047736 29338.705399 19029.193805 26152.731451 25549.146979 30071.001300 13722.178238 9744.545490 17435.580095 25262.951885 17622.446440 25103.627677 26453.604758 22774.919399 22734.421927 26482.531906 26208.349688 24892.088241 12136.428497 21834.712267 20711.453230 26205.759215 21561.072769 28883.860643 -1164.818067 24313.258002 26633.568308 29521.227798 25978.266711 12147.503420 32806.810242 23772.629336 16799.786096 21059.536389 13305.831883 21737.276153 27519.910281 25373.580472 22234.540750 10000.066062 12097.530975 22418.623499 21696.787413 6474.626957 23324.063380 5034.596570 21597.485856 27464.097869 8147.961876 5241.125171 5350.767624 2056.111435 17943.550263 24350.411294 19749.704485 13246.988310 25457.209410 24730.595715 22046.541744 28102.062259 22669.190418 21065.913580 14331.873262 18032.646371 23222.116508 19611.641314 15091.950839 16384.097952 30568.510393 18310.095938 17023.687016 26195.525145 22588.032955 8973.639483 20136.798200 18029.747108 24334.429605 16850.830176 10397.405418 15927.688206 9646.140750 24384.769397 20432.907494 20136.644760 23833.490820 23436.888206 22598.049352 9788.796836 16678.030574 16780.795373 23077.585028 17052.629537 21692.221350 26997.609923 22427.603509 25563.361781 18985.442310 12134.842247 21167.624703 17149.490887 21335.425215 11990.957514 17226.940728 25156.522168 14273.382533 11377.483864 18363.180047 14473.824652 -3827.337320 24712.466711 21795.186749 22839.221477 29001.209682 22752.036233 20925.125538 22890.641455 21919.527900 22315.442226 28132.637354 17321.166637 21857.835688 11551.376821 17471.045859 19412.136982 21154.008717 15779.175853 17396.669370 7869.579785 12468.408702 17808.312254 13426.637963 12091.406574 4961.951217 13766.254448 4432.945304 -1308.922080 9277.908077 25463.069395 25962.734668 28922.981003 24302.723675 26411.701296 24709.981347 23331.298778 29026.850216 19310.919236 7887.361187 15162.040849 23607.300641 22043.594880 20920.638869 15467.059515 10410.950957 13157.621469 12279.765909 16001.819730 7841.820352 21305.484657 16959.531998 1544.012152 10447.824062 9469.094749 5837.258072 13593.531515 17294.947325 25663.330366 26621.248203 28678.725314 26930.260528 22851.301066 19858.588632 23735.347449 23563.486035 15452.028221 13967.926062 5182.743830 6635.775161 12216.795597 9291.206585 7648.887855 15571.517647 9120.296529 10570.739954 14539.986123 4942.376053 17665.674525 20364.424013 12821.398446 8133.315035 20067.652307 11203.212608 8972.634845 15457.579894 25694.021833 25565.109630 28812.115577 26160.620534 23191.559341 23092.575020 21086.681958 21306.090574 17111.600930 22123.676142 9640.666049 19870.982074 9508.969996 15819.007728 25165.481659 8846.409597 5139.858422 11516.297364 13691.205796 11376.864716 11893.891049 3637.095730 7609.329524 9164.732797 14440.036372 6460.188478 6598.557435 -1003.412188 25381.247495 23488.524222 24133.401784 27743.310833 21513.124286 26442.563447 24354.532055 17409.178232 12126.177391 10168.624210 7368.211004 12236.961419 18400.112732 15108.372717 15428.214764 20359.182873 17610.243596 17771.902983 3645.385936 5386.494422 8884.292946 6980.124320 12110.316762 14826.494712 5289.025318 12000.344017 6711.052394 1872.662027 24589.701191 22334.691975 22384.964335 16696.946222 20484.184433 19686.025056 19803.421591 19874.447373 17852.624780 11695.937377 13163.211034 7722.595127 15569.227741 6109.406186 14231.341299 17786.687154 9052.310289 -99.348061 13169.156075 9760.510309 12107.074094 7465.132500 9917.648601 13915.107134 12778.425505 16177.747064 4379.336706 8399.500230 24369.597293 23013.344973 26451.538247 17952.946506 24786.816063 12907.203675 26587.753450 22810.584560 12359.547876 20517.485779 18468.307781 4917.280490 13351.131026 5449.004862 5370.397125 4135.675612 6700.770080 898.831585 16202.706048 8108.112114 15136.478652 3870.755817 18684.340133 9416.225205 9875.019582 15264.352383 922.979825 1134.160234 24798.676622 24256.769728 27021.337272 25041.348417 25362.705138 23293.042974 14311.376797 22599.850450 3016.904981 18448.816720 18094.959001 11843.843536 10948.811568 2804.168173 2384.996511 1842.360485 3559.134137 2876.144285 3132.471628 5088.433304 4039.914393 2108.818450 792.162796 1656.544547 6721.723228 2202.442342 3131.398898 -7991.436231 25070.588259 24442.164306 21987.449667 23158.153104 25886.754246 23926.131944 17371.287772 17613.743895 10874.856925 10366.209177 13719.465966 4423.166826 4986.768774 24862.696772 25529.074857 24514.479649 24046.523766 26910.445681 17528.634030 23981.234320 12493.391998 13679.234151 11357.098837 7494.014206 6570.695912 3725.348433 24431.153746 25591.824919 26408.864386 17421.843228 22058.864356 20241.271030 14414.856953 14948.029926 6737.038587 4808.329237 3726.387855 3754.426381 3277.289891 24102.900918 25718.416078 26018.014187 20157.028140 20377.695687 11926.964870 14399.751701 17554.512814 8707.257433 4425.524348 10107.102818 11202.735960 5050.841221 23773.112910 25674.497266 27554.395743 23549.938701 9039.854621 11258.139395 8410.311039 21238.077179 12822.956795 8585.842751 1939.493820 1776.232008 1716.396239 23401.838737 24950.008245 29776.751019 22537.556641 17259.020092 17025.674305 19531.878942 9313.644838 11424.711163 5082.368026 8963.586295 851.326069 3812.373126 23235.541600 25434.567069 28225.320910 21173.171917 20477.756166 21467.905979 17700.515161 12578.998170 4437.284428 14544.612303 7115.776590 11072.929253 3681.612998 23251.083270 25128.389009 26156.597290 24583.510100 21240.715279 18257.988399 15670.294380 4473.486014 10005.237103 8178.625700 8038.333414 6386.224502 2891.075862 23398.342219 24086.027898 23385.287461 18536.283660 22104.904148 19044.080117 15199.545337 9123.519489 13817.101763 4248.519287 5281.380287 1385.282146 2336.583383 23511.871579 24039.499805 25038.420535 16984.503227 20963.021211 17008.018609 14014.236228 15891.112140 12797.800754 10420.110028 10824.452513 8593.457999 1650.944246 23392.174936 23213.864183 24447.418126 25278.566772 22229.364894 20515.892647 20439.309136 7072.246668 1765.216772 5684.621031 10100.029594 10262.390904 4988.766031 23038.293095 22731.917394 23570.237065 16570.254695 14717.103157 19468.674855 7369.334897 12302.634990 11847.480584 11366.087146 6161.811745 3928.183830 1707.660757 22609.676478 22543.987382 24294.482301 24249.016239 19080.986944 18396.043276 11859.188517 10945.461828 10804.608315 5382.312993 14150.751928 6200.604961 2305.388802 22309.627765 22731.864855 24131.990944 21502.953685 10818.781293 9620.678898 9352.197328 6923.554599 8636.853248 17804.393828 8538.376264 5945.049806 2433.189314 21883.568352 21661.773297 21397.206184 16910.884918 18222.999810 21095.762857 9432.931670 16045.367406 9504.398956 7993.514157 9203.859954 8833.712680 4903.687266 21276.794754 21992.664077 24760.451141 16859.771867 14752.879012 19054.127804 16005.000572 14603.960136 10811.745763 7100.788287 4163.882561 6764.646423 3092.041768 20834.918019 22279.485811 24784.578966 15457.963454 10675.136402 10377.211509 4022.201285 15239.523967 12283.239204 14205.465647 6034.478619 7112.949693 81.703722 20632.074816 21553.271126 23421.733280 24022.444832 15643.999431 12340.454406 6023.825534 19962.022867 11713.429392 10267.219677 8666.925174 6411.450775 3783.575173 20178.270638 20370.612542 21010.571980 21620.958003 11864.443053 14435.617760 11881.830793 8723.910054 10035.898877 6768.500132 8059.925306 10816.807022 4555.629059 19749.396422 21365.013610 22045.189021 21084.456051 20841.681533 11204.310163 4342.738956 8964.278571 1446.469146 15012.526609 4468.136839 7169.025264 2147.619646 19612.364866 21572.615680 20781.428124 20840.951725 17021.223790 7859.855575 8598.104487 12124.039040 13888.400132 4654.851271 5354.529178 3964.226284 3214.018885 19599.281513 21184.240978 20086.565908 23548.965255 16331.729699 16330.305841 13223.771359 13525.221715 8709.298782 8515.176992 7416.951006 4561.615951 4209.714345 19424.617001 20121.923181 20469.567670 20900.126951 17856.854689 13506.897379 16470.653979 13431.554655 10179.778023 9395.987041 5429.774011 4047.508520 4115.507470 19172.431314 19062.461388 18958.995276 15815.095674 17716.991842 21037.204269 13970.335372 16209.025291 13302.325897 11443.658286 8863.372927 3365.493438 3423.693363 18950.381072 18429.410515 16594.531238 18755.573053 16083.714237 16313.978562 12238.120705 14657.450978 14554.530985 7453.650320 4967.099539 5961.237480 4644.652077 18799.002122 18797.370392 19017.112479 16362.753534 17261.479059 8249.713994 15403.370208 12287.621950 11522.438914 5268.115139 5284.102067 6260.543718 6280.983070 18735.510505 18969.069721 20126.987533 14988.205408 15551.053913 14160.461349 8903.063250 11590.319439 10986.889990 7091.489956 4140.860743 3191.932485 5798.465491 18823.182729 18046.213955 17412.332645 14319.703987 11674.755195 11041.465294 8007.533785 7122.810097 7297.608863 6373.804891 3790.309836 7491.485950 2050.833880 18929.793420 16450.417762 14336.997058 15832.213843 18332.374204 13944.560635 8099.728969 13855.053346 8864.098306 3435.126796 7423.916677 2897.044228 1308.905130 18880.408344 17876.497960 16584.738044 15964.905674 17121.044756 15661.708309 12006.346693 14250.786475 11435.306017 8099.026946 5233.204408 2702.515098 3461.357271 18889.119873 19035.610762 17214.231638 16859.154797 15991.999617 17050.438338 14353.590507 9751.464043 8045.558007 4196.911686 5500.017627 2942.936941 5377.922782 18947.258792 19346.438319 18403.240405 17196.822889 16694.953881 13066.692458 9686.473883 5729.498251 4268.012530 6430.969331 3425.614495 5716.679867 3210.102468 18753.650993 18456.174865 16686.934125 16647.929270 17377.796079 9345.348697 3789.459267 4591.933925 5817.627901 2218.835123 8203.314111 4358.417939 2518.450952 18546.427836 17456.865365 14291.876632 17498.538793 13799.914106 12691.196603 14249.817128 11760.632578 10372.716703 8821.592923 2429.478305 3056.723972 2379.388282 18373.147124 17259.157777 14803.160280 18123.164694 16132.929949 13415.952404 8694.977730 9247.113558 5493.901623 4027.250397 3025.374850 3830.244332 3018.837471 17990.317787 17864.202128 19573.589237 16401.908702 15018.841126 12641.156064 17872.206571 7849.088663 6243.730998 6906.673058 7311.487534 3462.727219 2536.002250 17604.194344 17539.054250 18265.122751 17425.072393 17335.294721 13862.928273 11305.143164 2205.564172 5128.301143 10372.884964 1697.931224 4584.860178 2327.572488 17557.019779 18185.479080 18178.673946 17366.643367 13406.075703 11933.611062 12186.207087 7089.500899 6780.730796 6948.587092 6043.367223 8636.659631 4090.349939 17473.174284 17958.540175 16676.030871 16636.811112 12868.380933 11122.227461 8845.558998 14446.573635 13234.967178 3412.143751 6916.011740 2354.268839 2987.824279 17246.015465 17713.452315 16580.853996 14552.977619 13141.705223 12777.319326 12369.993119 13135.767148 5635.005583 8367.471297 3907.747941 11029.594047 4464.510989 17263.681221 17572.993080 17202.760591 12416.701157 11933.319410 12312.642698 11992.893223 11208.630421 5304.565185 8217.723068 4956.288473 2688.281275 2160.092089 17623.386302 18201.946374 16885.680709 15197.415117 13421.518672 14239.918227 11797.254251 7898.015929 12377.311779 6938.362100 5616.330311 999.823120 4290.913841 17924.087282 18543.537057 16669.626841 16568.733683 13563.546875 16474.648903 10698.927993 13192.993209 12472.261523 7627.533655 8454.283376 10385.833319 1230.939855 17819.670995 17618.947892 15486.286918 13646.899594 11956.670594 8434.384300 13030.525077 12580.217882 7711.353503 9859.036815 6339.809898 2666.990440 4223.526690 17406.348954 16063.169542 13516.040627 17837.749074 15090.175710 15346.301973 11214.541246 12699.069215 6132.576562 3604.845853 8916.463075 6939.105608 1346.249190 16872.717956 15378.506041 14125.478031 14916.744417 13630.584268 12350.302082 8209.847581 8291.867007 1602.813564 11752.364838 7749.978768 3712.422778 3338.760596 16471.166180 16103.891790 16772.499303 16291.560775 11204.221878 12834.876996 8967.188096 9574.006451 4096.786493 5540.597274 9111.387525 1970.164365 6737.458957 16658.861668 17560.412786 19863.861711 15595.326545 11929.269801 12710.796685 10836.992191 9214.355502 7128.564845 9620.651116 6809.170902 11022.125103 1500.641287 17304.638844 18455.618766 18801.513546 15520.942526 14617.023278 15147.626288 9344.821370 10349.583387 6176.771710 11767.497674 2444.990466 5763.016630 2497.884161 17811.744674 18799.065829 16410.233590 14678.980271 16921.168156 8897.007673 9771.346603 12207.577647 9837.752452 9839.507642 12652.532382 6117.232717 3294.635492 17869.492613 19352.134785 17824.328975 14718.645997 12062.769006 15061.126755 7546.491434 10713.321278 11110.137055 3338.275753 8399.597009 7703.153437 4537.089495 17496.404655 18511.643173 19638.934288 14660.313031 16633.811490 9380.231708 11731.974345 9289.496630 10651.501964 7289.762155 5169.092830 7725.236626 3289.880829 17076.148653 17866.840319 20451.834941 13797.872857 13047.880460 5074.548433 11221.151973 8269.014771 10959.888344 8171.575508 8307.821429 7634.302908 5294.463212 16978.878374 16713.631548 17056.461230 15141.601681 13730.962539 13403.505777 6685.018543 9217.303182 8673.271223 9241.179149 10447.669672 8694.404280 3030.907766 17127.967953 16695.165780 15922.399342 13786.784644 16792.414143 8261.177551 12378.791983 7844.293034 10377.761267 10997.058380 3940.836823 7189.894839 2014.974845 17259.080437 17382.501038 17867.041839 13861.437514 13646.984428 11123.198205 9477.403177 14158.386646 9488.190139 6263.637060 6912.598912 1914.453675 1439.051338 17307.608768 17979.926807 20019.234997 16189.641137 12191.939551 14851.198162 7881.337193 11750.907612 7457.140577 6933.374183 8778.439190 5668.134158 7750.986291 17298.218626 17814.967526 18961.291566 15962.669311 12413.608009 15115.881869 14502.970333 15473.644752 12071.753033 11575.931578 9713.184656 8708.544006 2878.751031 17259.712188 17527.351274 17194.993768 17075.481538 10703.126204 7064.142298 10671.575497 10010.818734 11498.440648 8399.776909 5789.985540 2444.011317 4293.217103 17015.619858 16274.096201 15941.809610 12994.708421 13953.274579 14208.384674 11823.017717 8584.930922 9199.411530 11956.054331 6773.528558 7076.524014 3403.656030 16789.487405 16227.467968 17374.232815 16519.459856 11195.891965 14927.548476 11254.075790 5367.370180 8077.246776 7481.577792 6532.764833 5946.116015 1464.239172 16814.059546 16591.337374 14985.057873 11629.718137 12769.799151 16509.633844 14098.910025 7081.581760 12078.330573 9460.975893 9470.727088 6089.875636 2106.384658 16553.028044 16150.029982 13821.701008 15342.236708 11030.422941 10310.291476 14013.671531 11595.885698 7570.659665 13719.998062 5246.106720 5486.862096 8038.050110 15835.858672 15189.007179 14944.310887 15092.509220 13519.271428 10201.592325 15474.493795 12929.038032 8353.853731 4487.697377 11671.291740 2064.854301 5052.821941 15104.093498 14949.491845 16031.271938 13782.445888 10945.674001 10848.125803 10635.846671 9498.291148 5690.410154 11800.191785 7680.938984 3770.936202 2242.727297 14696.432185 15019.534238 17037.990909 13602.704499 11138.107795 15498.667718 12825.403320 6892.292631 11398.248464 11737.128907 4985.739737 3313.960233 3523.842401 14430.705031 14690.748927 16319.719905 12881.341683 14700.722323 15451.977319 14465.817771 13399.929273 3271.059573 15246.571663 10635.730888 4306.372165 2374.338628 14318.838847 14137.576351 14855.104257 14839.505260 13512.635429 14960.754869 12566.543032 9176.847254 4894.183306 10497.064359 8497.449321 6558.146664 1974.229338 14392.345026 13633.452063 12419.528781 14571.233969 12022.018021 12959.679821 15092.907342 6014.136706 13231.870450 10103.171981 5290.371968 10768.830578 4468.785313 14423.117648 13849.920948 13418.085334 12523.931877 13750.171979 9455.013933 9084.278260 13563.501284 11832.985174 11196.920443 6502.775172 4903.377593 2635.385584 14320.679156 14209.357402 14552.548215 11430.491538 13506.786759 10834.166241 11856.790784 15880.025535 11334.045638 7160.025153 5402.181721 5914.050469 1388.309288 14174.254504 12689.399091 11619.225820 15807.128411 13039.711249 11026.710863 10274.273414 8493.746299 15589.708473 11029.435516 3554.671181 3396.718569 4385.596439 13910.630825 12582.338663 10797.526393 12981.623837 15238.094891 8541.429907 14209.541906 6728.916541 14161.440006 9872.421982 7156.024340 11055.742242 2807.973076 13633.455873 13521.843648 13894.559851 15995.721754 12132.627078 13839.370545 13384.052542 10987.722322 8903.313016 11500.409750 6338.997414 6357.588166 4157.097960 13571.759526 13486.409990 15634.780760 15061.010893 12261.170113 6062.743855 10809.836228 10216.107778 10571.660604 2768.957041 2111.029627 6103.919286 2923.803220 13662.775158 13768.085240 15692.173220 15114.583365 13836.033912 14981.421024 10781.043710 8998.222186 4661.657509 10070.130894 9594.315552 4914.607725 1729.536419 13578.994144 14978.721381 16818.996529 14253.161903 16749.715013 7785.434509 14991.617299 7254.010469 8367.954388 9464.261087 8500.229627 5359.714620 4545.011693 13424.107968 14547.093019 14516.052261 15910.385062 7636.103422 4412.523279 9550.562763 6179.953765 5484.470570 8181.971529 6814.813679 8503.468720 1626.301009 13439.466452 14075.017800 12264.449994 12622.082977 15480.403654 14386.685550 10493.805148 9862.795916 9156.822249 4755.856357 4459.610359 4986.341295 2586.287353 13408.446398 14553.527733 13271.232507 8523.594015 10292.327942 15531.926484 10434.825928 7495.262153 11225.337865 7206.921192 9536.876664 5392.053862 2486.275669 13317.985330 13678.148680 11793.833940 13168.853829 15313.287113 10459.974902 8502.586569 9304.283219 5779.556253 11620.874403 5141.162049 4725.393639 2230.702910 13095.593094 14067.863821 13738.723296 11412.979085 10244.454620 6789.620054 9775.364880 6278.555150 9479.663801 4640.985811 10043.573597 11279.959237 4792.884669 12686.537009 13215.535315 12494.394001 7824.561929 13486.351084 11032.326237 13338.631361 15727.689095 9346.880576 10936.474475 9695.071431 7803.406134 3302.719858 12528.539121 13096.630935 11929.693163 15421.687348 14477.095157 15361.750098 17213.107497 14135.859073 9447.449317 16959.436350 12510.517458 12868.144149 11437.577724 12040.959358 11933.705310 9192.252274 17927.541151 13311.219550 15894.940178 15154.304143 13236.119473 13389.449641 18365.350837 10436.566193 10194.860491 11293.635514 11502.364261 11198.680550 9928.030208 10497.897611 12864.718178 14366.016114 17674.549873 15326.572451 10400.945110 14732.023187 12570.862698 13690.641328 11717.815488
</DataArray>
<DataArray type="Float64" Name="Velocity" NumberOfComponents="3" format="ascii">