<VTKFile type="PolyData">
<PolyData>
<Piece NumberOfPoints="2177" NumberOfVerts="2177" NumberOfLines="0" NumberOfStrips="0" NumberOfPolys="0">
<PointData>
<DataArray type="Float64" Name="Pressure" format="ascii">
 14421.053743 14164.426758 13689.677971 13035.343443 12172.363152 11106.324659 9891.960948 8577.672869 7189.206195 5773.128873 4440.982856 3344.956889 2458.840169 1428.848351 103.472799 -963.285196 -1335.067737 -1208.635942 -1181.225236 -1780.271828 -2773.303145 -3564.214145 -3972.380026 -4085.110233 -4031.116368 -3900.826685 -3731.500708 -3529.119444 -3291.779538 -3028.062794 -2756.337781 -2490.953615 -2239.404861 -2004.988147 -1788.730407 -1590.440662 -1409.294727 -1244.186209 -1093.941122 -957.441524 -833.684244 -721.793676 -621.004821 -530.630680 -450.025552 -378.552617 -315.561178 -260.376933 -212.310015 -170.695096 -135.008471 -105.128205 -81.626942 -65.255289 -55.652029 -51.549969 14351.205193 14071.345504 13613.796381 13003.007618 12136.881776 11130.085656 9951.300782 8617.942043 7202.424261 5681.478367 4114.846201 2968.985164 2507.097172 1750.853999 -278.811339 -1671.857743 -1673.615919 -963.204656 -448.850492 -1488.327793 -3064.905193 -3761.892577 -4081.725072 -4141.395359 -4061.169996 -3919.461303 -3750.302859 -3555.361370 -3315.030416 -3038.907204 -2760.479738 -2492.525057 -2240.129578 -2005.436823 -1789.080520 -1590.745127 -1409.569382 -1244.436786 -1094.171002 -957.653597 -833.881085 -721.977356 -621.176746 -530.791536 -450.175263 -378.690072 -315.682966 -260.472777 -212.347598 -170.573316 -134.425667 -103.500574 -78.523617 -62.204341 -53.439833 -49.946303 14279.850838 13971.104139 13863.855505 13833.290786 12280.564842 11257.836279 10140.082514 8396.960295 7211.036491 5740.226224 3496.998824 2001.787329 2885.593590 3521.204789 -1581.817333 -3765.966427 -2257.320273 -503.810897 1122.345831 -1119.199646 -4027.704682 -4214.931851 -4233.816578 -4210.069444 -4096.132905 -3941.626623 -3776.499151 -3607.194589 -3369.924303 -3055.221950 -2764.733482 -2493.595163 -2240.234004 -2005.248389 -1788.812015 -1590.466224 -1409.302722 -1244.188707 -1093.941900 -957.441764 -833.684310 -721.793669 -621.004726 -530.630344 -450.024430 -378.548903 -315.548886 -260.336273 -212.175595 -170.250208 -133.551409 -100.034258 -70.939862 -56.216314 -49.681564 -47.293071 -55.220226 -48.601603 -45.698420 -42.786885 -40.471466 -39.046045 -32.049473 -31.492129 -30.954642 -24.388681 -24.241197 -24.055092 -18.536987 -18.506039 -18.436003 -14.018357 -14.019180 -13.987767 -10.530978 -10.539235 -10.521716 -7.853888 -7.862663 -7.851085 -5.813449 -5.820983 -5.812601 -4.270380 -4.276418 -4.270124 -3.112846 -3.117541 -3.112768 -2.251603 -2.255193 -2.251579 -1.616063 -1.618776 -1.616056 -1.150929 -1.152958 -1.150927 -0.813308 -0.814811 -0.813307 -0.570258 -0.571361 -0.570258 -0.396727 -0.397530 -0.396727 -0.273849 -0.274428 -0.273849 -0.187554 -0.187968 -0.187554 -0.127449 -0.127742 -0.127449 -0.085927 -0.086133 -0.085927 -0.057480 -0.057623 -0.057480 -0.038149 -0.038248 -0.038149 -0.025121 -0.025189 -0.025121 -0.016413 -0.016459 -0.016413 -0.010639 -0.010670 -0.010639 -0.006842 -0.006863 -0.006842 -0.004366 -0.004380 -0.004366 -0.002764 -0.002773 -0.002764 -0.001736 -0.001742 -0.001736 -0.001082 -0.001086 -0.001082 -0.000669 -0.000672 -0.000669 -0.000411 -0.000412 -0.000411 -0.000250 -0.000251 -0.000250 -0.000151 -0.000152 -0.000151 -0.000090 -0.000091 -0.000090 -0.000054 -0.000054 -0.000054 -0.000032 -0.000032 -0.000032 -0.000019 -0.000019 -0.000019 -0.000011 -0.000011 -0.000011 -0.000006 -0.000006 -0.000006 -0.000004 -0.000004 -0.000004 -0.000002 -0.000002 -0.000002 -0.000001 -0.000001 -0.000001 -0.000001 -0.000001 -0.000001 -0.000000 -0.000000 -0.000000 0.000000 0.000000 0.000000 0.000000 0.000000 0.000000 0.000001 0.000001 0.000001 0.000002 0.000002 0.000002 0.000003 0.000003 0.000003 0.000006 0.000006 0.000006 0.000011 0.000011 0.000011 0.000020 0.000020 0.000020 0.000034 0.000034 0.000034 0.000059 0.000059 0.000059 0.000099 0.000100 0.000099 0.000166 0.000167 0.000166 0.000273 0.000274 0.000273 0.000443 0.000445 0.000443 0.000709 0.000711 0.000709 0.001115 0.001119 0.001115 0.001727 0.001732 0.001727 0.002630 0.002636 0.002630 0.003933 0.003942 0.003933 0.005771 0.005783 0.005771 0.008295 0.008309 0.008295 0.011654 0.011670 0.011654 0.015958 0.015975 0.015958 0.021208 0.021222 0.021208 0.027182 0.027186 0.027182 0.033251 0.033236 0.033251 0.038112 0.038060 0.038112 0.039382 0.039269 0.039382 0.033053 0.032839 0.033053 0.012727 0.012360 0.012727 -0.031370 -0.031965 -0.031370 -0.113667 -0.114589 -0.113667 -0.254818 -0.256198 -0.254818 -0.483603 -0.485608 -0.483603 -0.839139 -0.841977 -0.839139 -1.373369 -1.377291 -1.373369 -2.153761 -2.159064 -2.153761 -3.266116 -3.273146 -3.266116 -4.817357 -4.826500 -4.817357 -6.938119 -6.949798 -6.938118 -9.784986 -9.799654 -9.784982 -13.542207 -13.560331 -13.542195 -18.422744 -18.444790 -18.422704 -24.668593 -24.695001 -24.668464 -32.550392 -32.581511 -32.549970 -42.366456 -42.402380 -42.365074 -54.441622 -54.481661 -54.437103 -69.126763 -69.167722 -69.111979 -86.801190 -86.831715 -86.752835 -107.884547 -107.866372 -107.726411 -132.879737 -132.683898 -132.362578 -162.515306 -161.698417 -160.825557 -198.394679 -195.230751 -192.845764 -242.747379 -230.824697 -225.152459 -268.559197 -248.555176 -239.522013 16464.674253 15886.007492 12588.114850 11394.505914 13577.371871 15726.131356 15790.361140 9253.040306 5703.192383 7040.615458 3808.923399 -3546.676536 -5134.616307 4580.831659 -4623.090193 -16923.306011 -12387.215457 -8224.879383 -5997.205928 -5003.062731 -4452.188114 -4185.783958 -4150.604660 -4252.977978 -4400.089483 -4527.829515 -4595.206279 -4570.213316 -4430.054587 -4175.888245 -3842.596684 -3488.648540 -3170.583854 -2919.623690 -2734.701469 -2592.656663 -2465.287931 -2332.164292 -2184.723995 -2023.753097 -1854.633023 -1683.509294 -1515.358162 -1353.531521 -1200.009884 -1055.813493 -921.333642 -796.538142 -681.061997 -574.146262 -474.270849 -375.926017 -293.073765 -258.648054 -243.791164 -238.021759 16275.455246 15799.961756 14846.116613 15823.150909 16588.290478 15150.546159 14105.053809 12890.630049 11080.809575 10781.132386 10056.257707 8171.288677 7962.901343 9438.357137 4318.252668 -2852.378662 -4403.643427 -3745.891501 -3303.510511 -3184.149939 -3159.010884 -3244.796340 -3450.139567 -3721.330232 -3993.310272 -4218.310591 -4363.341553 -4400.360921 -4309.361385 -4093.754479 -3789.942615 -3457.367979 -3153.560502 -2911.129426 -2730.707581 -2590.758833 -2464.293549 -2331.587352 -2184.394011 -2023.600891 -1854.610449 -1683.573991 -1515.476252 -1353.679526 -1200.173627 -1055.987016 -921.522598 -796.777227 -681.476710 -575.169602 -477.344011 -388.061080 -314.041468 -271.937522 -251.539852 -243.634394 16241.906725 15738.512502 15342.242613 16118.243946 16446.198488 15190.753911 14167.637828 14747.111138 15321.025585 14875.251893 14093.292546 13017.583583 11891.868036 10606.619687 7990.585454 4387.497410 1799.461941 268.711957 -732.195191 -1392.741592 -1865.509385 -2297.757135 -2745.031655 -3187.640778 -3586.517535 -3910.254861 -4134.322076 -4234.500237 -4192.841701 -4014.574439 -3738.067988 -3424.789446 -3134.157498 -2900.379921 -2725.348677 -2588.499929 -2463.609561 -2331.553969 -2184.526885 -2023.698040 -1854.620553 -1683.507566 -1515.358695 -1353.533122 -1200.014516 -1055.828372 -921.382343 -796.697864 -681.585663 -575.866061 -479.846554 -395.548449 -327.958204 -282.858406 -258.045390 -247.952983 14301.824418 14128.334993 14613.814598 15026.426181 12741.219990 11324.790538 9286.403744 6717.291581 6287.360047 5726.513542 2399.451444 -248.575491 2300.248191 5384.381748 -2532.966261 -5422.784794 -2585.773489 -336.749209 1720.605595 -890.662184 -4282.957838 -4372.119902 -4281.599164 -4230.860424 -4106.263260 -3947.960263 -3785.459954 -3634.255301 14551.120129 15315.498051 15654.191783 12135.609196 15449.152012 13341.943392 17126.712609 17063.420925 11597.337339 14399.861201 14291.690719 14120.990469 11655.867497 13499.973299 12686.991061 12132.920807 10178.459733 10715.033547 13754.298502 13740.490090 15718.816089 15444.852424 13355.264227 14557.947483 12734.451006 12725.552520 4011.153468 -51.918225 14967.412748 16169.103086 15643.368596 13320.355959 14522.744268 15731.874859 11737.453201 12491.134504 12486.076370 13879.684972 15657.060995 10379.116112 12325.869408 14092.119555 11786.655496 14112.278455 3972.801970 14711.368730 12984.548021 9817.639975 13780.544359 15268.477445 12588.362260 12167.355122 13666.217156 10894.952008 9708.895204 11946.267223 15285.595768 16043.790737 14693.603117 8835.158458 15497.173670 8563.263784 12874.784610 10217.597150 11931.640513 9030.298684 1441.228498 10696.187060 13335.696141 9352.621857 12887.151347 10588.258041 11822.372928 11599.854986 10729.595244 11976.510298 11381.209962 3039.038655 7828.496315 14248.247491 11546.476040 7155.007091 12588.275768 -1303.087621 15391.647107 16029.234620 14243.726761 15153.955701 4888.066783 13567.711362 12329.934266 4698.310936 15445.598607 8844.810818 10561.818959 13682.029456 11185.666996 10608.687131 866.601428 5727.993418 14779.452340 13643.505191 6049.176399 11526.437091 1620.848586 12009.553989 14149.813005 1398.772536 2818.300679 5227.300647 -45.098525 9210.658886 15408.064172 15851.440034 14252.794867 11250.837149 14448.941476 9123.527027 14454.765151 6858.597657 13771.319079 8380.253909 11736.012516 7882.980572 12214.392567 7738.146273 11113.206952 12330.568857 8748.675651 8244.996986 13466.021575 10886.851045 5890.329319 13276.276353 12457.751234 8330.809491 13114.208179 5035.954755 5020.756574 3501.183443 15430.807933 16109.301889 15291.362772 14135.794242 11062.086814 15237.100847 6875.133242 7190.044453 5633.581292 8809.136017 11309.276772 12169.081296 14627.186407 12380.982040 17055.035347 10831.929551 4872.735672 12451.533552 8136.471324 9616.679712 1924.930370 9057.281878 12664.784309 6754.923226 6590.336894 8103.328838 1792.609705 1797.310465 15375.670240 15661.557041 15419.509393 15407.849596 13404.017424 13138.321828 11116.187680 12542.145774 9040.734400 12629.003838 10341.738507 14278.622804 4670.549940 10491.336885 11132.790270 11567.457338 9860.852463 7850.906187 3847.396004 5417.960892 6539.620281 6706.989599 6531.764097 4520.083321 8100.871159 3597.219930 457.409107 4389.875447 15394.099666 14748.630054 15315.837061 15407.355301 14967.107019 15894.073197 15079.760937 15072.925119 10454.244058 6192.293804 8993.991024 15825.474348 10962.377499 12237.764287 7206.442791 2006.897231 7843.353049 5052.728710 10404.510082 2066.719032 12421.362374 6077.652504 1992.318806 6068.896986 3732.599588 729.563109 6143.627417 1998.792472 15449.828259 15460.073834 17227.734869 16979.476347 17147.351016 12053.373929 11444.821069 12414.510517 7442.732318 7872.029057 5307.340730 5227.443635 4759.679692 4178.632749 2413.520184 9502.784826 4698.953525 6954.432320 1841.115337 3033.185908 7376.948376 13953.590121 3608.997247 5840.035078 9610.443191 3229.584957 3599.194771 2221.949611 15455.717113 15926.676302 17626.458849 16528.241476 14925.963913 16147.698223 12510.712941 12178.860576 7871.495039 13731.208470 3453.475334 10127.391165 4187.743283 7325.402451 11645.091634 5257.915611 3145.347486 5632.439712 10083.069901 5081.665307 5867.788095 2192.156918 3598.366523 2470.073645 9441.664158 5563.018087 -316.415898 1049.355849 15542.364892 14669.210633 14138.401871 17530.157793 11263.684244 16990.408518 14557.070764 9573.128979 4639.562135 6407.175594 5783.053745 8684.412975 10683.875517 8188.661132 8336.809394 16102.627283 12587.638136 10354.910399 2007.692755 4990.896860 1634.033871 2253.826154 8279.778171 11362.443074 2664.930534 5297.879218 416.928954 4206.961508 15728.099506 15428.876445 14674.771994 12973.304093 14013.476365 11070.112615 12232.881855 8981.417371 10793.063876 7048.893888 7150.509510 3290.329502 9279.924781 3479.095498 5912.321033 8053.555420 4523.415469 2382.645623 7331.752884 5152.043142 5426.762437 4363.533217 7642.325486 8808.965632 7969.075804 9995.388312 1459.289040 5645.097282 15905.525584 16423.504588 16016.368889 14642.531057 14331.519498 5640.982615 15574.932690 14874.698512 7667.041389 12714.322039 16254.282981 3178.151021 7996.769772 1785.726464 5659.801010 2118.725693 7076.015291 2805.665957 12993.905282 5772.350366 10438.529426 1540.834724 13184.390362 5485.087537 3726.475666 10092.490244 1214.634368 1706.351012 15919.933929 16492.830506 16389.763720 14784.619799 15592.187182 18204.928301 12419.300198 12972.601153 3543.410837 9737.973252 9765.370272 7072.971365 4125.729169 1080.867739 2380.192909 2515.969855 3243.894046 1904.986122 5080.975753 2990.604459 2489.971846 2125.868406 1261.258314 1774.718703 1571.197385 2136.915108 2366.590360 1087.244020 15840.293925 15841.894907 15659.492304 20245.684440 17227.404972 15774.558159 14366.506608 8809.953985 5472.409189 5748.749818 8111.408680 3368.732149 5991.689313 15846.603121 16245.380028 18493.971284 17738.880706 19137.923805 10072.963354 16090.471178 11221.697465 11110.537230 9883.329853 4390.713699 1233.189959 2187.235289 15886.215305 15713.232495 16659.022919 14998.197966 16554.497115 12338.106687 9309.956367 8681.960774 5302.449540 4859.415804 3423.060491 3248.378873 2526.731338 15954.740503 14177.733762 11784.823708 14848.306363 16348.611206 8717.299355 12582.147107 9781.273554 5082.255434 2361.758177 7512.605953 9812.865143 2104.632459 16012.497433 14500.103365 12073.941564 21461.710868 6560.472754 8144.008703 4268.386007 16054.654400 10848.777644 5470.351087 1060.895782 1766.868848 3806.102339 16283.924598 15879.346434 15422.281037 18469.103347 11973.479970 14992.191642 15807.176219 8588.924227 7310.925951 2153.272865 7389.377612 2454.206177 1082.125768 16717.098882 16653.130117 16451.557511 17768.684179 17629.153873 15101.220321 13475.952260 8240.644644 3158.180212 11589.553354 8531.511378 6320.177364 315.031735 17035.521214 17209.286423 16406.744615 21047.882608 18635.246071 12931.311505 17890.121950 1008.569527 6638.678052 3523.909146 2255.102495 3883.150490 1955.043274 17141.342815 16909.677723 16273.200088 17704.049495 22370.483848 17545.351959 15226.262256 6518.986417 12596.783022 3849.672007 3662.327144 2060.119666 1072.517714 17128.063911 17038.330893 16398.078587 10850.000624 17667.501174 13073.444329 8607.084613 13971.248732 8631.185050 3382.995712 10377.511112 3749.554043 1702.933620 17030.373010 17021.536191 16446.885898 18563.786435 18300.060308 16377.478340 16874.139985 5760.663221 5750.434747 3910.459597 7132.188738 9990.110637 3528.880338 16972.290296 17145.792679 16469.281538 14761.586960 12842.010851 14788.644340 12457.814857 16546.837773 9127.081679 8247.962269 3317.742681 7924.397587 837.759126 16963.503460 16930.261958 15974.447477 21143.663675 15721.839610 18788.744492 12544.538099 12873.178510 13541.062267 6178.886552 14443.981767 6218.291221 -833.016618 16852.906621 16541.907410 14987.100631 18575.900564 12956.982168 13299.931733 8152.116456 4409.535072 6268.487927 17519.460448 3196.674287 4604.337628 4693.794894 16715.131634 16455.867632 15285.232996 14713.687176 17884.308876 18048.253936 8400.598817 19075.298649 6837.733331 6857.248175 6774.361632 7719.244039 5775.849531 16657.941910 16816.239526 17130.923778 17423.050162 16315.017127 19127.869283 17410.347649 14454.362397 12477.994041 5161.910749 5016.998845 8126.451507 4374.806537 16726.987412 16677.865115 17112.578297 13769.774630 13679.118863 11538.499137 5189.796227 18818.926534 6514.197250 16094.014760 4805.620448 4285.336988 710.480735 16958.252807 17297.312647 17478.256698 21990.910016 16146.613269 12041.266745 8061.896600 18134.171864 9038.620989 10265.192442 7913.412966 3422.350997 3696.025552 17324.333407 17941.337467 18978.086831 17561.908757 10526.485947 18996.685441 14510.531588 7642.269794 4760.070305 8394.358096 9595.058249 10236.565272 5322.585280 17695.986326 18073.579727 19218.448043 21692.667784 19963.583418 13782.377537 4893.685981 12821.347120 4687.333991 16345.452381 7075.063199 2000.451528 1184.958539 17997.478987 18167.236896 19261.869407 23287.954217 15452.701158 12077.097281 7330.036944 10651.387254 16124.672493 9653.612429 5236.659454 6293.148565 2293.212062 18177.780966 19030.997099 20838.228052 24165.139748 18724.952437 18078.256937 14656.132760 13834.151281 11480.153551 8321.509944 9524.163559 8077.841956 2561.911758 18350.606356 19282.882829 20695.618992 20338.036101 15517.989732 14787.671383 16644.538837 13051.628195 7516.107187 14404.442525 4779.968713 4972.441152 3309.510535 18668.678737 19691.431526 21275.528358 19424.430223 20218.468121 15720.235056 14295.824232 20019.332501 20146.015972 19037.886104 10375.315733 2904.357349 3118.752249 18986.453623 19911.905412 21762.160205 18267.410004 15714.516061 18850.637354 16141.160941 16733.534686 14738.977657 6650.652411 2728.706924 5111.291830 5770.540958 18991.549018 19680.723179 21548.233712 22303.209137 18591.308288 11251.538255 20661.666783 11399.830972 14318.342145 1762.618192 7747.805232 4705.678336 7840.007432 18825.225806 19687.255323 22510.399024 18582.647418 19051.350370 19836.144944 13524.050902 11849.343637 11178.172181 7034.668738 9154.292228 3846.545017 5308.902690 18701.219682 18898.699703 21862.774766 14027.589567 13819.900797 15604.035257 14659.619102 8760.969528 10158.122093 8681.611798 3269.711967 12622.895617 2163.917527 18840.031156 19273.072214 20490.475198 19800.164305 17290.343817 16958.663354 12989.448032 14768.643740 13155.903808 2273.927130 6059.162827 6107.622807 2362.847016 19153.032859 19887.891860 21812.582638 24532.557706 21126.415683 19273.360471 17339.203820 17685.738164 15849.806995 11685.623259 8200.923349 3066.469893 2822.059563 19216.714230 19926.348710 23223.344371 20724.758065 17920.498218 18323.083914 15901.240041 15001.223154 9744.444479 8653.310795 4704.054724 5786.703425 6346.693241 19074.673168 20559.064729 22634.428319 22268.227827 18273.735298 18576.351459 14362.029650 10153.392895 5460.356794 9974.734475 4661.804763 8335.434323 1710.862583 19102.500345 22349.307936 27552.116870 20930.565644 18193.451011 14490.583658 4822.398565 6400.568219 10281.172691 6789.457857 15321.876184 9167.599597 5155.142992 19104.566016 21851.044862 24099.307813 21566.834030 21019.208099 19746.290993 19017.452369 17920.113566 13849.534545 13682.444617 7264.345173 1775.561307 2250.374335 18987.832401 18883.139844 19857.022874 22355.286796 19822.538931 18373.291314 13212.814014 11617.814699 7629.164176 2773.281954 8812.336581 8346.018318 6020.034327 19446.604428 20812.084218 21460.849222 20275.136146 18060.153492 21440.880587 20481.412547 11196.678973 12383.485322 10628.379010 13205.392869 6931.082373 4373.640145 20375.663052 23194.787594 26541.676220 23803.986365 21373.458185 18129.797385 15419.346038 5727.819885 8653.402477 13503.448242 5388.071034 5128.437274 3656.599773 21031.836973 22961.847589 24667.511647 19545.014517 21473.608077 14430.069286 15057.609933 7830.301388 10463.906180 14598.657853 4851.734500 7366.538084 3901.063877 21503.265320 22558.901817 22843.407280 21336.640173 20878.620695 20449.556403 15141.706437 21703.523522 18611.138444 6156.554096 6339.260147 8139.882862 2173.031715 21823.006976 23879.392895 24674.915097 24282.796323 21286.141876 20493.022195 17295.529827 17075.452498 9167.326217 10334.148142 7322.219365 9902.216455 1225.397882 21931.928364 21719.138258 21160.137680 22758.581547 18808.715245 19883.068852 18320.929918 15505.540640 8705.765281 14030.226101 8927.807478 5503.599434 1026.023159 22128.668826 22767.786319 22865.423215 22993.657424 21320.632216 18209.963161 15622.928322 11991.765382 16582.917321 9523.774064 7611.817711 3604.714540 2315.156587 22183.080246 22257.710207 22688.631151 23280.164058 21502.059539 20460.715384 15095.188093 17560.131327 14731.041368 13139.514288 10365.526672 12907.642625 3068.915072 22156.308510 23130.029592 24394.211384 22958.504665 19810.522784 12189.410472 17105.921977 13474.074721 12542.126241 7886.454406 9636.039470 3755.771105 1613.649577 22123.351918 22448.388505 22160.518227 23476.600474 22232.702524 20778.109736 14095.071427 20454.561929 11942.506911 6939.405845 7179.117876 8598.682078 1963.571856 22519.604697 23243.308605 22910.158807 18506.792455 22649.212293 19397.460800 14452.110318 13034.000475 5541.201278 15088.357730 11998.730454 4632.852548 1470.007733 23089.522780 23574.121283 24347.683943 19494.324065 17373.643202 16961.942308 16779.278958 11970.238542 7943.373865 6991.190895 10565.187290 1679.198178 3170.595235 23261.195140 22700.992100 23169.380538 21859.732580 18088.229353 18568.084179 13928.686219 8347.704918 7005.117350 9781.937047 5560.979426 12551.584067 7685.487197 23049.327005 22284.101782 23029.371260 21886.155580 18475.947307 18783.635600 9287.640701 9640.136366 6010.391763 9938.257132 2562.374907 7892.103357 1031.885936 22948.113749 21525.896027 21017.971600 18534.178834 20711.503860 16146.753345 11689.990781 14699.103137 14772.275092 6702.106664 12431.844233 5765.594841 3173.572672 23184.926631 23893.482648 25292.901160 22425.332854 17392.592557 20428.951978 6927.504693 14760.672794 10232.366403 5438.864992 9674.794036 8486.329825 6545.984386 23723.872418 24307.038437 23330.360346 23168.591755 20936.061130 13307.649815 15842.465685 12848.987764 12031.960971 6090.896463 8656.176859 5449.410936 1630.114811 23995.296678 23564.613169 21668.129779 16691.082811 18622.603006 8591.012451 18198.342527 16196.439894 4795.819917 8574.997098 12211.075203 6306.904399 3994.138310 23988.566772 23047.835717 20146.347562 19700.394536 20121.859698 19208.429389 10749.148388 16241.121971 12462.141868 10013.340791 12162.839044 8383.193907 21448.437581 23650.707670 22701.657607 22716.174519 17617.852968 21304.391903 13298.129095 11573.941566 10644.290494 8970.636497 11677.017060 2642.212484 12057.696956 9379.293944 23426.913852 22798.105727 26281.943045 22423.467972 18929.318628 21259.298877 17137.597823 20275.354455 7926.693351 7870.380702 6477.297196 5678.029339 4599.131892 23946.329557 23675.806277 23803.917713 20537.508350 20363.121197 17243.162874 9152.130590 16089.555595 8283.108070 7701.306320 9244.696737 3886.775769 6409.583994 24625.538542 23307.754055 20321.851675 21628.912822 15099.666525 17872.220390 18095.050192 20943.824728 14142.828735 20708.562648 9520.607999 5847.801752 3001.988600 24880.647790 24609.189277 23388.158247 20328.340607 18304.926880 13816.175369 16025.789987 18743.139493 15602.070337 8970.115867 4664.831034 1466.744380 2554.804829 24824.248667 23947.590354 22619.156635 19550.527452 18914.016502 21435.966142 19411.674425 12668.139876 7267.930086 14935.314398 9707.976708 6508.132496 3544.639679 24522.872866 23781.500283 22619.875628 19791.211575 16183.061735 21424.605208 11387.345899 8098.616357 9777.680127 4495.345497 6081.172280 8574.370840 11395.306224 24196.357638 22742.126134 20756.559107 13109.196731 20021.729761 18809.491741 15265.321256 4503.114982 13980.451380 8745.290676 14340.516866 3470.895205 4424.721677 24071.850945 23633.357227 21642.298515 24042.664041 16539.847168 16272.667915 19409.402702 12043.913902 19980.046736 15628.766485 3451.255056 9573.267371 9596.075790 24235.531201 24242.766378 24788.775426 19675.980608 17033.876499 18839.288327 19180.387044 17957.282189 10854.396199 2092.237549 13254.524381 3927.854306 4243.436283 24417.928711 25122.652078 24124.161163 20653.268503 15252.944927 12336.309883 9299.882315 14062.503591 11308.014529 14772.715768 7319.896148 6569.672686 5022.782068 24477.990372 24840.393864 25347.305312 20716.402929 13858.466620 16606.736270 15155.342034 4363.430649 18283.937992 7182.853974 8339.899633 1664.347014 940.621870 24602.220496 24590.602465 24553.790604 17306.006016 17517.374516 19459.385649 22077.801010 12480.577345 6805.142965 19584.742878 14298.867412 4867.892536 4513.749230 24544.289636 25301.990392 25936.660569 16155.542997 21330.783446 19182.842721 13871.035653 12577.393994 3593.414480 7811.052062 10250.369375 5623.027557 3259.104952 24235.030685 23717.659708 20369.485541 18770.140365 15462.969515 17044.051676 17278.659983 9405.327882 14282.018776 9468.274429 9782.536909 5824.330594 2038.382896 24209.076789 23578.261134 19200.456667 18683.940930 21296.093577 13865.770549 15119.343586 22991.649718 15391.218984 9882.056791 5728.598077 8589.535512 2136.086747 24004.250496 21331.654133 16039.774536 14744.050261 18831.955610 13349.261898 16322.081181 16625.180190 13175.389160 15980.263672 8795.596200 10182.699284 4155.491956 22992.476724 17821.980346 14952.118880 18333.881845 19976.089489 18926.820735 16866.959970 16843.789529 17034.540651 24398.408349 2501.419987 8057.427314 10281.741766 22383.656487 17582.695988 17219.206285 20088.560980 18827.260533 17334.700833 16361.052647 12263.039946 21063.512247 11388.730574 13944.536997 6249.620359 9920.313286 22256.832542 21853.154235 22922.410866 20924.930608 19894.226636 18415.583707 14979.344442 10759.146857 13414.070369 12177.406301 8447.217849 7738.018760 2802.108746 21831.746452 23234.910003 24670.215892 20244.453200 9613.795766 14833.843091 9552.648981 14915.786198 15715.128683 7800.534681 3328.945508 7380.676852 1586.895479 20954.547309 24116.603746 29129.390471 16818.278696 11427.238706 15320.790060 14796.977379 17165.120898 7937.057630 22797.615938 5921.896153 8168.536688 10658.835409 20054.903682 19040.120431 21958.482759 16349.694462 21031.871475 19714.037498 11553.347402 19117.527235 6932.890886 19548.595455 11538.664472 6235.687126 7039.342533 19428.750451 14851.532654 11036.679947 20800.480518 15482.775594 9757.984374 15284.466292 15071.854709 5210.961066 13643.839309 9088.135308 11028.851194 779.104623 19098.974443 14963.705226 11462.831207 16282.548696 25622.490559 21322.173820 17198.948526 5462.063290 15930.417121 11473.585807 8710.596405 7418.360841 2429.120939 19226.329035 16041.038129 11927.001690 13419.553699 12298.825702 18425.302121 17736.746262 11887.682912 13113.868599 15883.299816 13553.268681 3866.238199 5529.889232 18977.484227 14737.415571 12500.034353 16246.605047 11963.775164 8809.926445 10951.215878 9857.711416 7790.531058 12278.735752 12959.134309 10611.804666 2961.134054 18204.484543 15312.568389 18368.879816 13962.441218 18516.114965 17074.506118 9525.305277 5744.316011 13784.410853 10522.938768 10628.431298 11725.740317 8122.463375 17923.934641 18336.030633 21170.331038 3258.326746 20115.106530 14680.671062 16421.719036 16392.534979 9269.500430 10708.828367 10187.655088 13176.359094 4332.454524 17508.576612 16456.926305 9996.481778 19372.239684 17447.138518 19861.355274 18019.735919 13440.430547 12933.067664 19132.475576 10407.292613 13374.647576 9490.413121 16790.534455 16492.063741 12239.648339 20802.735661 18918.081015 19737.520474 16449.122464 17976.824084 19672.858888 20071.410533 15275.961951 15278.252387 9396.296523 16464.674253 15886.007492 12588.114850 22766.317008 19009.983178 19895.771681 18905.468468 13923.872007 14297.433458 21004.756634 14582.448341 16330.788238 16217.737989
</DataArray>
<DataArray type="Float64" Name="Velocity" NumberOfComponents="3" format="ascii">