<VTKFile type="PolyData">
<PolyData>
<Piece NumberOfPoints="2177" NumberOfVerts="2177" NumberOfLines="0" NumberOfStrips="0" NumberOfPolys="0">
<PointData>
<DataArray type="Float64" Name="Pressure" format="ascii">
 13621.331821 13418.090099 13042.850631 12507.455495 11752.036037 10786.360509 9632.549533 8313.748036 6911.781408 5385.136557 3696.275758 2041.308602 495.226635 -1223.893970 -2734.058491 -3252.430139 -2635.782385 -1562.162077 -1066.044847 -1331.933581 -1528.865800 -1460.264780 -1673.389131 -2442.010433 -3176.057541 -3446.473243 -3385.027074 -3178.005563 -2902.229989 -2596.185893 -2288.406772 -1992.875508 -1714.016577 -1453.596993 -1213.398891 -995.509915 -801.827020 -633.527870 -490.765517 -372.619033 -277.241764 -202.123071 -144.385831 -101.062281 -69.314169 -46.583753 -30.677328 -19.792235 -12.502435 -7.718376 -4.635979 -2.687473 -1.497913 -0.824504 -0.486818 -0.355426 13554.311981 13228.936913 12705.939313 12053.638227 11056.054107 9944.818257 8919.023622 7743.043938 6442.994664 4879.304873 2896.380948 1237.604212 310.459259 -1636.120693 -3555.864170 -3871.336251 -2613.619509 -682.141073 -197.616526 -1691.844172 -1876.554258 -1148.846673 -938.249368 -2548.063593 -3680.502436 -3776.972279 -3554.739529 -3275.652682 -2957.663944 -2619.065525 -2296.593711 -1995.723716 -1715.135878 -1454.191798 -1213.855784 -995.943785 -802.261811 -633.957412 -491.175470 -372.995497 -277.574662 -202.407093 -144.620115 -101.249474 -69.459268 -46.692986 -30.757211 -19.848788 -12.540341 -7.739358 -4.634381 -2.648589 -1.415075 -0.756066 -0.449925 -0.336234 13467.394457 12925.257207 12339.376033 12132.995707 11233.197623 9068.430058 9008.273644 7903.350326 6364.289863 5235.546555 1666.337933 -438.194375 1937.028250 -2244.672891 -5509.365401 -4722.891015 -2457.296951 1556.887790 1634.387541 -3137.798446 -2898.130522 -314.318620 664.996146 -3115.683863 -4814.281505 -4238.149946 -3771.043954 -3424.457536 -3062.282771 -2649.520046 -2304.829770 -1997.979667 -1715.595754 -1454.084120 -1213.548686 -995.555858 -801.841082 -633.532168 -490.766830 -372.619434 -277.241887 -202.123109 -144.385842 -101.062280 -69.314153 -46.583689 -30.677091 -19.791361 -12.499222 -7.706586 -4.593551 -2.520715 -1.172040 -0.607915 -0.386003 -0.304122 -0.618575 -0.394260 -0.297476 -0.331279 -0.260369 -0.215317 -0.160476 -0.144834 -0.129943 -0.081675 -0.077788 -0.073284 -0.041752 -0.040852 -0.039474 -0.021210 -0.021039 -0.020594 -0.010641 -0.010631 -0.010475 -0.005256 -0.005272 -0.005212 -0.002552 -0.002566 -0.002541 -0.001218 -0.001226 -0.001214 -0.000570 -0.000575 -0.000570 -0.000262 -0.000265 -0.000262 -0.000118 -0.000120 -0.000118 -0.000053 -0.000053 -0.000053 -0.000023 -0.000023 -0.000023 -0.000010 -0.000010 -0.000010 -0.000004 -0.000004 -0.000004 -0.000002 -0.000002 -0.000002 -0.000001 -0.000001 -0.000001 -0.000000 -0.000000 -0.000000 -0.000000 -0.000000 -0.000000 -0.000000 -0.000000 -0.000000 -0.000000 -0.000000 -0.000000 -0.000000 -0.000000 -0.000000 -0.000000 -0.000000 -0.000000 -0.000000 -0.000000 -0.000000 -0.000000 -0.000000 -0.000000 -0.000000 -0.000000 -0.000000 -0.000000 -0.000000 -0.000000 -0.000000 -0.000000 -0.000000 -0.000000 -0.000000 -0.000000 -0.000000 -0.000000 -0.000000 -0.000000 -0.000000 -0.000000 -0.000000 -0.000000 -0.000000 -0.000000 -0.000000 -0.000000 -0.000000 -0.000000 -0.000000 -0.000000 -0.000000 -0.000000 -0.000000 -0.000000 -0.000000 -0.000000 -0.000000 -0.000000 -0.000000 -0.000000 -0.000000 -0.000000 -0.000000 -0.000000 -0.000000 -0.000000 -0.000000 -0.000000 -0.000000 -0.000000 -0.000000 -0.000000 -0.000000 -0.000000 -0.000000 -0.000000 -0.000000 -0.000000 -0.000000 -0.000000 -0.000000 -0.000000 -0.000000 -0.000000 -0.000000 -0.000000 -0.000000 -0.000000 -0.000000 -0.000000 -0.000000 -0.000000 -0.000000 -0.000000 -0.000000 -0.000000 -0.000000 -0.000000 -0.000000 -0.000000 -0.000000 -0.000000 -0.000000 -0.000000 -0.000000 -0.000000 -0.000000 -0.000000 -0.000000 -0.000000 -0.000000 -0.000000 -0.000000 -0.000000 -0.000000 -0.000000 -0.000000 -0.000000 -0.000000 -0.000000 -0.000000 -0.000000 -0.000000 -0.000000 -0.000000 -0.000000 -0.000000 -0.000000 -0.000000 -0.000000 -0.000000 -0.000000 -0.000000 -0.000000 -0.000000 -0.000000 -0.000000 -0.000000 -0.000000 -0.000000 -0.000000 -0.000000 -0.000000 -0.000000 -0.000000 -0.000000 -0.000000 -0.000000 -0.000000 -0.000000 -0.000000 -0.000000 -0.000000 -0.000000 -0.000000 -0.000000 -0.000000 -0.000000 -0.000000 -0.000000 -0.000000 -0.000000 -0.000000 -0.000000 -0.000000 -0.000000 -0.000000 -0.000000 -0.000000 -0.000000 -0.000000 -0.000000 -0.000000 -0.000000 -0.000000 -0.000000 -0.000000 -0.000000 0.000000 0.000000 0.000000 0.000000 0.000000 0.000000 0.000000 0.000000 0.000000 0.000000 0.000000 0.000000 0.000003 0.000003 0.000003 0.000015 0.000016 0.000015 0.000081 0.000083 0.000081 0.000396 0.000405 0.000393 0.001774 0.001810 0.001759 0.007280 0.007407 0.007212 0.027328 0.027736 0.027045 0.093685 0.094820 0.092606 0.292705 0.295393 0.288969 0.831554 0.836681 0.819876 2.142018 2.148925 2.109661 4.984380 4.987994 4.908155 10.420285 10.416107 10.286407 19.391005 19.438790 19.335358 31.517939 32.079385 32.451332 42.592719 46.041894 48.623396 38.820351 56.328178 64.771710 24.992252 58.904479 72.004147 16218.357163 15030.188140 7826.521547 6291.693468 10822.906503 7719.981290 5086.303925 10647.868636 13488.099218 7891.599260 7191.266253 8353.247788 1410.206599 1838.459234 6099.473635 -9672.750317 -12845.987368 -10786.276345 -9053.667352 -7590.731091 -6356.213884 -5469.068712 -5014.236777 -4899.196709 -4952.052273 -5062.845698 -5200.379247 -5347.092747 -5454.670565 -5454.037799 -1352.034299 4261.344544 -4093.178155 -6157.781064 -4040.021081 -3614.904786 -2829.630131 -2232.461446 -1778.068241 -1429.733366 -1197.604608 -1055.150445 -950.249213 -866.219270 -827.598447 -851.092816 -911.120651 -945.543492 -892.035835 -729.027344 -488.443631 -223.803082 -24.862229 42.738325 65.851676 74.381667 16007.610445 15450.307616 10265.215078 11106.948147 12485.316735 9901.861306 11268.442672 9126.753335 7936.169905 7371.207292 8462.780153 7613.263944 5987.165472 5901.905930 5745.660418 160.396835 -3628.749810 -4782.904164 -4850.292707 -4635.376332 -4302.074638 -4062.142938 -4049.478195 -4224.873629 -4469.389279 -4710.416251 -4937.922575 -5146.870435 -5298.175310 -5331.348968 -5191.858919 -4692.108536 -3713.268830 -2999.222516 -2861.440949 -2531.275640 -2063.400411 -1615.529724 -1226.275765 -931.677039 -742.236006 -641.741099 -592.420937 -575.150311 -599.236230 -671.241794 -765.788584 -826.785228 -798.018076 -660.724413 -447.137654 -219.460427 -43.753584 38.965535 69.892303 79.735647 15748.154215 16180.629299 16422.868461 16884.623136 16762.760067 15918.501306 15176.937652 13343.043810 12902.369945 11894.870339 11074.324783 10384.382792 9485.435440 8624.331208 7654.593715 5589.409729 2990.653228 816.660290 -711.353480 -1663.880237 -2220.265242 -2631.340971 -3070.467828 -3545.220285 -3985.477475 -4357.170058 -4674.855449 -4947.767703 -5145.367437 -5212.902789 -5109.555688 -4823.829534 -4353.146251 -3757.828390 -3118.755176 -2475.373965 -1886.247502 -1353.438936 -906.909181 -577.573023 -375.203095 -282.711276 -266.111448 -299.639206 -377.085613 -493.868278 -622.938405 -711.852332 -708.224505 -595.097869 -405.404698 -203.038594 -46.619120 39.915931 74.944917 85.114079 13504.075878 12840.345215 12832.728051 13777.431211 13752.625425 10635.624837 11104.287391 9314.927200 7015.814789 6855.149803 1758.208930 -1437.702087 4913.231460 -2293.171561 -6931.461319 -5160.701050 -2374.799310 2525.528517 2140.264205 -3911.078777 -3393.968047 -25.397288 1128.530043 -3404.811396 -5268.736598 -4398.703474 -3835.208558 -3486.884385 13895.685336 13834.041420 16769.524727 14874.808872 17162.483508 15340.522797 14190.554261 17709.628004 11355.625852 15625.958345 17698.224337 9155.420805 15055.329088 7277.219585 13677.833542 17264.907225 13227.083813 13433.496926 13957.349683 17100.331753 15679.730374 11604.459563 15236.538472 14156.867061 19003.610766 15552.832022 873.372190 -974.699447 14539.663601 15778.912314 19459.810483 13120.333935 17652.270584 16091.069023 13333.308298 9229.626772 13750.046410 12933.464527 12063.270803 14032.004000 11562.792026 20232.460443 16164.961112 12691.045590 4937.192409 14713.095364 20142.654133 15100.245335 12780.566420 15092.273454 15149.716448 16055.650809 11920.219677 11663.085527 10265.378973 4634.046068 14983.196707 16756.177713 21026.701624 8441.520038 22512.537578 14543.056624 8597.702431 13173.072781 9214.337116 13227.008215 6113.278246 8316.695682 11940.512954 5080.105424 13778.615021 2993.484277 9410.066047 12058.661329 8566.548591 8872.751564 15642.293852 70.742188 10328.927409 11424.386377 8994.842761 7130.614715 15120.324147 1220.527148 15216.830238 15978.877416 19162.240424 18749.475380 15223.966071 11270.489382 17830.221523 9601.651150 20348.345520 4066.957458 14748.761271 10097.385323 6323.771618 8199.745158 4068.648637 13144.052500 18304.951876 8356.298998 6787.405943 5447.673200 725.095171 5757.883503 13669.066342 -50.939591 5716.013894 5176.239666 4707.905689 2346.780053 15843.979415 14729.232438 14686.757792 17129.020732 18856.016430 16983.091174 20380.548241 13144.849633 17729.320800 12846.818873 9945.089811 13721.374712 18008.184306 11600.000052 14364.153271 12952.114049 6599.559956 13474.748382 10175.236561 10586.049291 8744.206833 16739.035347 5183.226432 6730.209735 4700.589603 -465.393970 4565.421814 3860.644134 16856.905101 17416.435270 20382.302023 18772.305814 18191.969366 18961.199115 13580.771942 6825.213950 12774.704172 16027.186912 12490.542994 13485.025898 17376.692587 10908.583344 16256.337769 12183.766391 9209.774664 9306.453229 3246.205315 10027.480697 1185.893739 14097.910648 10182.230302 4975.970996 5075.037646 1407.416020 1728.450983 3166.234707 17482.284587 18222.363471 19516.663201 19674.146625 16919.501511 17693.736598 16348.333366 16008.186123 15042.331149 14816.908361 14598.218237 16674.555115 10625.614305 13796.216989 15186.249522 11557.292432 9203.514183 12617.150922 6268.195820 5897.011334 9490.079542 7506.924099 4166.893068 5665.264480 7912.696216 5009.702077 2438.992188 911.816603 18046.750559 18322.615791 17364.877592 19483.712524 16983.078001 19553.283882 17190.460351 16637.004730 13047.723119 6712.425137 8414.313670 18525.966701 15250.232079 14542.378411 5067.528461 3282.134429 7971.300829 8952.480820 12108.004555 5707.617264 15400.471849 9087.734938 4084.375096 7360.851606 3908.705772 4313.503400 6788.941253 811.000472 18576.433969 19586.694997 18571.047366 18105.356458 16225.590878 16022.245677 15049.326268 13519.446459 10541.419463 11645.000026 7229.453684 9731.200202 9464.788402 6711.366223 8927.353556 5487.182911 5918.339395 8897.474566 7338.507363 4110.095064 5170.116239 1914.612645 2686.534663 7059.806018 6119.254448 2901.275192 6250.627404 1804.131350 18304.414807 18426.385428 17108.392611 19361.452129 17384.407565 15816.741375 16914.400569 15325.744404 10700.523536 16368.770293 9093.055555 14089.611262 3057.137363 8668.027283 10785.008707 11196.586094 5793.582529 8798.339779 12584.623757 3669.592680 7798.255414 978.166630 4139.386904 6800.007135 9025.516633 2708.574833 419.794223 1658.277226 18409.551859 17466.848587 18771.472922 18407.409842 13402.689966 19320.367204 19220.740211 15225.038860 7809.532340 14377.024441 9134.605119 10111.472833 14221.076013 12425.113412 3569.510361 13316.775311 14960.977972 9553.710030 1492.704701 4826.061702 2660.505324 4925.920681 4469.345502 14886.407363 5301.663643 2194.862655 936.341972 2111.743211 19063.714895 19929.812305 22669.727908 15461.554250 16301.984653 14591.043677 18327.826218 9450.487847 11620.298916 11033.360473 11531.542690 6945.665505 12816.866247 3027.687988 7646.708776 4388.592037 -119.211289 -1138.836111 4561.242454 7091.241529 2155.686591 3289.870747 7058.214104 4087.948210 9445.293833 8083.289713 3615.406775 2636.530898 19464.053343 19879.103657 19661.236173 18915.948542 17761.170291 13249.988035 15229.007793 16829.382750 13302.333190 10261.978534 12767.451227 4880.754556 4145.742867 2800.141905 2821.881591 3221.111033 7010.027377 471.182003 8495.760618 5670.327591 5951.876254 272.181946 14243.342050 5263.783227 1893.831053 4421.347959 1522.881186 1647.584535 19337.813875 20101.608172 19994.565248 19331.506401 18586.437650 18891.796877 10725.959702 17060.144942 7498.759194 6857.381597 13511.355834 5125.869602 5404.710557 1536.327297 778.109179 1870.470603 805.966847 722.924409 3175.439322 1672.830871 1146.713295 64.646486 1393.737574 330.830810 2127.476434 1815.458367 1820.907396 1807.526937 18580.456601 19403.775987 19532.093352 18997.549135 17979.886462 16924.700849 11060.348533 10361.680850 9470.865573 5120.258852 4321.689107 1691.769640 11067.367984 17773.018502 18087.158291 18767.536262 15082.966199 18735.277306 8434.902268 17963.341863 11735.324051 8007.675785 9041.084062 1357.703882 2213.593020 2216.704349 17933.524402 17640.191548 17019.545275 13755.340173 13468.120009 16437.638739 9222.879048 8062.492399 5630.226471 776.466989 133.689852 -253.467496 2274.568976 18788.027798 20150.066065 20878.964736 16016.983125 15435.566144 10002.619702 11920.536007 6470.128627 5456.699378 2086.202476 7973.182396 5709.915999 1163.900265 19084.235639 20478.589218 20353.407804 16967.985316 10638.709726 8117.038996 7491.564225 10635.886562 8782.094171 2328.011206 1354.232079 2672.113941 1491.805048 18895.727076 19429.876739 18803.254627 15073.477811 13989.638975 9795.329824 15493.455841 5723.997308 1162.771698 2076.545806 2266.358229 6181.582198 1697.984204 18760.062126 19567.022361 19495.291203 16249.821197 15482.800721 12398.804020 9437.751068 9213.378917 804.801002 4277.285214 6466.602054 4685.153686 4131.905690 18540.320771 19717.182943 19623.542633 15277.607309 15084.361248 9965.420055 13005.876053 1774.352747 5869.134984 1514.636387 2229.616669 2434.806260 1152.598119 18266.787191 19364.782746 19664.844217 18232.730033 13873.235737 15753.328795 14275.254925 1182.060591 9618.449927 -352.518718 2960.165685 1066.967171 1072.271870 18200.838395 19157.560129 20202.606637 16152.507564 13758.507296 14620.079962 7563.389706 10573.038922 3039.154197 4544.300419 4291.544938 7661.157203 1896.515957 18214.877900 19541.420320 20720.821753 15169.598511 15295.903316 13491.865064 15607.729726 5070.852691 2871.773828 2959.957162 5741.881485 4084.804682 3343.724471 18051.161247 19688.352465 20100.606914 14895.143049 12282.188752 10666.975497 7634.816533 4860.306071 8782.064214 7566.765525 2679.059488 11864.644644 3562.771474 18086.920800 19595.184953 19980.315301 17121.309820 15428.718828 17690.458375 12121.888685 7208.829853 9281.116232 6608.337311 6969.798020 2887.416270 1799.693795 18537.083411 20098.258187 20265.852745 13411.581756 10392.135197 11073.144150 9086.250542 301.456076 3501.859590 9333.689094 8771.520468 4486.165738 2083.196753 18787.394662 19126.138900 17754.509003 15381.587129 14532.165890 13461.790010 6966.158389 13945.625403 4524.783679 9512.302838 8221.362412 16189.065711 569.147725 18554.278609 18972.152478 18473.267085 14234.307565 13804.106801 15589.797371 15348.763058 13502.053034 5095.316634 4948.786768 5050.756789 10272.038803 2779.872272 18100.800997 18560.736753 19927.225496 12141.139995 15663.974988 9904.981730 12780.961379 12980.412210 10932.046892 6109.102033 5830.040839 3645.295964 3798.175804 18003.126371 18812.683956 20598.840186 17328.533147 12518.710150 17411.576694 7108.064866 11141.660694 11902.804257 10775.578164 9706.935991 4308.975600 5510.551972 18259.410893 19338.511855 19340.008036 16195.209216 15713.134318 12330.014337 15783.016032 15445.117733 8433.111679 4431.852748 11002.278414 5922.238168 6000.686257 18122.501418 19208.310774 19728.116079 15370.075722 14274.264864 14040.040239 10682.474769 8886.077268 7587.463640 12506.285561 10714.837801 6821.493029 2601.117923 17360.614499 17231.513123 17187.461429 16413.355003 13865.255931 16295.874787 15546.249613 14187.530926 18914.471145 9791.117858 11129.995762 8125.457132 1653.262258 17067.289624 18172.411237 17623.414746 17951.071163 17531.041413 17967.370940 15995.107605 19798.185756 11930.196634 12948.301812 10426.452680 10956.027108 2952.656254 17764.111784 20058.230680 19823.938311 19674.715151 17161.310831 14767.944589 15292.353219 13119.940898 8079.641387 13150.952453 4369.576514 3079.522300 -1144.240437 18213.636150 18757.783698 18593.391112 17809.983969 22231.697277 16324.998858 17684.791127 17971.043549 19821.695324 17327.057796 13959.884551 8466.986761 3309.487680 18107.741102 17457.016577 16671.484371 19094.237048 19650.216340 19118.091796 19651.465470 16555.675643 15495.285974 9561.564510 5906.180172 7612.068132 1133.773099 18222.447079 18948.765463 18674.606970 20571.684877 19717.123611 17947.302738 20320.533869 16862.299597 16696.923902 1423.047269 6951.199511 4328.771057 4322.766554 18515.623427 19684.016032 19641.650516 18376.598313 18890.193632 17063.819113 15512.160128 11479.751153 14724.183557 12455.134730 6770.692400 606.551739 6950.250064 18499.408127 18502.532352 17056.390786 17642.912870 22885.276956 18261.291134 17986.124529 12433.114269 18133.404350 12499.920619 6975.106528 8066.584167 373.222544 18367.202980 17884.129571 17913.588952 22682.655180 22894.508974 19458.351617 16554.460822 16775.801566 16964.156286 5323.656621 9208.940933 4865.735402 1400.302294 18427.495208 17661.134889 17393.677348 21030.443608 24201.212456 21654.885214 18015.303481 19823.271513 19227.418126 6962.274535 6412.920128 5941.668978 2157.058355 18695.107557 19384.891193 21353.943040 20970.220524 22675.667856 21075.245217 23038.908359 15314.655591 7934.730202 10772.306575 4622.708555 2084.739887 4255.633417 18734.688609 19129.022977 19992.083941 26551.593188 24535.269086 21983.309195 12208.169410 16386.562307 10527.726124 9811.655559 7061.661797 4661.312860 -1356.561045 18218.048865 16455.222937 16098.804069 23152.809624 22056.274719 19343.254022 12042.446521 11950.046767 6964.329515 10055.013516 14381.693236 6128.782918 3106.083302 18270.883795 20132.866654 22849.574987 24154.879310 22733.590914 21595.437090 16864.692927 14606.667488 9845.173880 11408.268859 7594.532130 4793.299023 927.726964 19409.298471 23077.931216 25269.974195 25673.271112 22196.509175 25605.352983 16506.457658 16257.385971 14742.952411 7138.165203 12676.488688 10199.697477 4197.437714 20159.463893 20117.957846 21160.419006 24073.246871 26100.136145 21655.315467 22199.276220 15183.530897 7959.068103 14718.563062 10748.611914 3571.916314 443.194148 20352.299867 19989.153773 21019.598409 23001.890351 22188.140844 17406.761679 16803.821270 12555.694983 5680.940069 14328.760313 11125.413613 5334.063717 1632.534315 20389.091948 20988.202719 22514.470185 24837.119875 27281.488161 18916.356193 17778.916831 9210.378272 11239.760778 20808.633251 1660.213671 5818.409410 4929.202125 20283.559108 21017.332035 25392.708189 27146.997606 23419.855649 18909.207173 25192.457264 21055.975686 20995.732391 13715.000056 8445.217794 12178.628524 832.161918 19985.310218 18784.541382 22111.009999 25717.048344 23997.371917 23359.224058 17454.928178 18751.715841 12710.575309 10550.479092 10163.903824 9006.795520 5044.307787 19897.790301 21002.115134 22428.915803 24592.654848 20776.596735 28810.145777 18287.751047 20349.932984 16170.845452 13414.106519 7477.808439 2319.325650 4286.972992 20877.439912 24885.243983 29481.562750 27367.291844 27797.140996 21830.677774 22013.622971 17466.878926 16381.167346 14885.566436 10645.227746 106.760979 3747.639625 21716.294067 23599.015625 27945.769730 24001.615159 30293.299962 23909.539063 21602.949994 17459.154314 20632.577916 11059.430738 15538.210738 10845.874508 782.454495 22119.045021 24272.341018 25035.193479 26490.065608 25723.465123 17737.035003 24390.868196 21620.268435 15694.788309 3970.926399 9695.476565 5807.804021 11074.488410 22384.979914 25241.534457 27045.907586 29341.895162 24430.424680 25280.981497 21130.291437 25473.234539 16925.275501 8074.586590 8048.738817 7582.574328 1079.489184 22301.349081 22131.514007 22584.437110 25073.274952 26470.252238 21563.628238 22027.805651 19935.614139 5621.887747 12506.434208 11856.356421 1121.816342 7447.202175 22315.943523 24030.259952 27459.343774 28257.378277 26161.040159 24223.677198 21170.406045 8311.709103 4735.447039 12006.040089 7162.473339 4875.485789 -786.318079 22719.586163 24585.971917 28995.702133 29164.156486 25191.641452 23337.810585 14648.469032 11072.206265 7757.874877 15265.842986 10868.516636 10015.336880 7374.918045 22790.365365 24273.519145 27231.224822 28267.371153 27928.338636 21308.868034 7555.956812 13893.471303 14185.681620 11859.237022 10011.766553 4256.634367 1157.588616 22932.415681 23391.973473 25429.862850 28941.257569 29082.866030 26671.543927 13316.993140 14124.116177 14081.962456 13052.010949 17055.065273 3855.852276 2605.611179 23177.615690 24840.777737 30903.924319 29971.613488 21877.390958 27513.594415 15306.621295 15524.309754 16870.184176 3940.525881 7769.661242 2569.911256 1058.974356 23536.051962 25150.011029 30131.545836 28560.829177 28099.604367 22223.399088 18445.010433 16474.193233 17543.545520 7612.246829 5050.032284 5600.686745 3894.772416 23658.978637 25667.498534 31394.838458 27601.311899 23984.513035 15346.238136 22303.800637 19228.939290 8363.047082 13588.088046 12636.713253 3711.449023 2786.453988 23772.740226 25591.272663 27893.004085 24862.520421 22191.008288 23466.611088 18371.092146 24957.996443 16319.218951 6059.261832 11653.916181 6271.011597 -1472.071579 24364.203527 28030.927022 29668.995253 26395.046149 27264.603855 20753.487882 18900.174814 17755.960233 14877.702012 16834.959341 4284.892707 4175.661854 10489.299872 25120.194947 27461.495288 29189.355077 25925.225426 24682.061041 17620.885547 24124.233722 17509.782921 13646.042892 10941.906584 2559.173997 242.588212 389.096486 25079.190145 26887.061377 32659.307183 26900.983856 23737.693426 22128.063803 18306.068967 18562.197034 16535.759600 6196.573437 10443.042274 6540.699769 9158.671865 24465.188917 23626.413526 27682.244088 29032.567634 26168.490135 30564.859451 18694.401967 18113.548419 13739.600235 14163.311177 9329.309543 9366.309083 695.810705 24201.119334 25191.598810 24510.903401 27819.693258 27180.961809 21907.337084 23445.368377 19249.458754 16709.954604 8941.003790 8979.372539 5573.992683 4182.590672 24556.140043 25958.536230 27906.212922 30360.023008 28006.968345 24867.813875 23553.231772 18868.553377 17508.497314 17233.881347 9719.935534 4116.795251 1915.302244 25120.022459 26421.094114 30282.561594 30599.157819 27477.200158 22792.298178 20008.431914 16237.006405 15464.709367 13018.966905 6029.917581 10930.579569 11741.647868 25813.479682 26992.832076 29887.276785 28484.600680 24567.970319 24512.591224 19414.966989 18261.379745 17662.453085 12629.865767 9760.136619 5258.379145 -979.446006 26303.252242 27133.288101 26712.441764 27282.041484 24023.452422 25206.275532 21467.066358 22444.734827 13822.040535 12363.110797 7571.762163 9154.352050 2027.352144 26374.676092 27548.772032 28255.543069 26909.815363 23498.134156 25070.392490 23144.173951 16598.630852 15903.904530 8212.007378 8206.187989 5294.523661 6553.383105 26109.591520 26252.173340 23989.562238 25966.055136 25291.843811 21864.035596 21214.847834 16846.236670 11662.277410 15040.969521 6889.253371 7246.940860 12703.857111 26455.996615 29942.049806 30346.056476 27391.188560 28479.220858 22037.852113 19520.268153 17957.408964 20525.498890 8773.697685 7947.854542 7494.849147 4729.660472 27120.504516 25967.454261 21804.216039 27074.146736 24443.747405 23873.948597 23618.987752 19017.648582 12832.400209 6328.716853 8138.746486 5279.304507 -1079.389674 26698.251980 24836.329769 29744.501733 28901.489605 23504.236562 23200.086967 25188.738518 15006.577264 10924.458317 14949.053525 11490.633425 2471.425782 -3140.355536 25729.610000 24619.380572 39003.704708 24854.823722 26416.513187 21975.765655 16680.714140 19216.655688 17733.408959 12219.636352 7253.340011 4304.121628 1941.984243 25525.374767 25859.386896 36041.036186 25632.479051 13865.172808 14176.967620 20424.380252 17213.781056 15500.980370 11705.522517 7622.284034 11699.326331 10011.053787 26277.847629 27960.524356 27794.265678 31285.788477 26912.848921 19122.741800 23571.223996 14584.898407 19309.315571 13805.391048 6516.414546 16566.777066 5374.931577 27487.988132 29739.640685 26113.638115 28469.236110 16800.821894 18133.285102 25382.769701 19410.917134 16741.348066 17304.323506 10949.979615 6346.478212 13572.261016 28249.527504 29578.324103 28459.222664 25546.204844 22702.099001 14764.672899 28335.849807 12198.144443 14560.012284 12618.997127 13396.042171 16647.127218 9552.717813 28389.192312 27030.307399 23025.136385 20982.137914 27223.976749 21022.534480 17359.516142 16741.702362 13280.898926 15622.162052 7669.049934 8871.145278 2861.340020 28174.920255 28679.404572 25097.249383 16196.518852 18247.982310 16194.345513 18781.056599 11224.921136 13630.661072 14869.836216 11659.198488 5416.013960 -1853.293419 27236.627546 25472.544540 20390.540885 24530.674771 24309.140720 21433.442727 20228.507859 16543.545186 11106.883420 14534.694349 8323.979995 13534.396386 2636.428077 25758.214914 23543.513941 19823.529530 20924.613390 10752.734507 16352.786160 18282.772503 11756.155714 12960.849953 11941.709932 11135.834105 7265.014154 14306.000061 24309.438483 20666.880286 13265.326467 23404.214140 18625.525609 17817.088979 20242.519957 14550.300772 11961.311207 12214.161309 10798.999534 10017.888667 4460.630641 23481.019908 22582.367647 21196.203907 17472.756460 23332.794649 25999.345102 21579.527183 19271.842964 18705.647973 10132.538078 16362.367904 16713.138354 4426.904129 23009.584225 25065.090267 28706.966836 15548.065478 22322.932301 14883.492517 17786.777231 17422.741379 11566.091666 6736.084752 12844.427534 12610.895722 17363.352074 21909.546339 20724.519033 21163.678600 18522.888126 25277.843713 16179.192928 17848.352782 14888.246386 12592.650843 12644.539876 10652.985805 9482.122776 13555.097029 20960.371107 18413.638329 17589.970440 19212.120311 22503.645867 19180.014193 11847.723803 20125.993250 21340.535953 5309.832059 17341.490860 22256.402689 16899.877261 19926.442340 16172.463305 5930.902668 16777.387527 8435.362585 25136.233245 13228.486299 7294.001180 15230.460846 6585.205566 10733.844063 8053.900039 -702.285675 18273.207156 16212.325186 9675.118150 13575.314848 11683.424166 4103.861182 18312.460880 14587.968467 2815.128432 21484.637759 5071.035484 12932.085808 5896.068953 16733.388236 15912.110330 12377.950074 20882.358149 18959.585409 13356.057913 17522.418876 22730.760130 18221.542761 17007.773477 11144.097273 10781.684836 11796.442873 16218.357163 15030.188140 7826.521547 24321.024567 18653.951118 20587.721385 8741.519938 15077.929362 5979.359075 19814.269444 9406.987545 9632.599605 12757.614933
</DataArray>
<DataArray type="Float64" Name="Velocity" NumberOfComponents="3" format="ascii">