<VTKFile type="PolyData">
<PolyData>
<Piece NumberOfPoints="2177" NumberOfVerts="2177" NumberOfLines="0" NumberOfStrips="0" NumberOfPolys="0">
<PointData>
<DataArray type="Float64" Name="Pressure" format="ascii">
 15012.422460 14954.149962 14827.966030 14780.161854 14834.251706 14668.728473 13821.163948 12260.514100 10582.765432 9324.958427 8525.434262 7980.167374 7532.302527 6914.000831 6072.277835 5231.220078 4371.490414 3613.291797 2435.523042 1417.522127 1174.403293 681.600682 -250.563628 -704.198028 -1175.908019 -2296.349534 -3360.234944 -3720.067226 -3390.142556 -2675.714634 -1886.143162 -1209.114528 -711.762622 -386.858259 -194.835215 -91.158037 -39.692166 -16.102470 -6.090790 -2.149171 -0.707732 -0.217587 -0.062476 -0.016758 -0.004200 -0.000984 -0.000215 -0.000044 -0.000008 -0.000002 -0.000000 -0.000000 -0.000000 -0.000000 -0.000000 0.000000 15792.592454 15517.153098 15140.222442 14879.533113 14990.292742 15380.299555 14734.723854 12533.958711 9554.440327 7613.433433 6785.342602 6669.275560 6934.093359 6101.641893 5012.981133 4249.670923 2478.920737 2971.324018 -348.101616 -1703.100159 576.777533 554.459953 -1699.040152 -966.502819 -513.176189 -2592.748763 -4067.903358 -4292.841664 -3720.324616 -2827.943643 -1950.349872 -1235.803667 -723.309784 -392.116768 -197.304895 -92.316523 -40.220302 -16.332076 -6.184842 -2.185211 -0.720600 -0.221860 -0.063794 -0.017136 -0.004301 -0.001009 -0.000221 -0.000045 -0.000009 -0.000002 -0.000000 -0.000000 -0.000000 -0.000000 -0.000000 -0.000000 17006.827684 16834.538317 19778.358752 21452.968236 19889.154493 14941.390081 14240.309838 22713.104546 16703.163479 8772.341027 6212.750449 9135.807879 13091.461853 4709.962128 9081.333152 5374.013253 -3156.066678 8324.667266 -9465.064605 -10391.798803 2422.705589 1149.557689 -6437.569450 -904.347854 1811.842247 -3769.748668 -5590.939950 -5136.012178 -4235.001484 -3008.318027 -2011.344362 -1255.675542 -728.744236 -392.933436 -196.954891 -91.874160 -39.925233 -16.175322 -6.112609 -2.155418 -0.709437 -0.218029 -0.062585 -0.016784 -0.004206 -0.000985 -0.000216 -0.000044 -0.000008 -0.000002 -0.000000 -0.000000 -0.000000 -0.000000 -0.000000 0.000000 -0.000000 -0.000000 -0.000000 -0.000000 -0.000000 0.000000 0.000000 0.000000 0.000000 -0.000000 -0.000000 -0.000000 -0.000000 -0.000000 -0.000000 -0.000000 -0.000000 -0.000000 -0.000000 -0.000000 -0.000000 -0.000000 -0.000000 -0.000000 -0.000000 -0.000000 -0.000000 -0.000000 -0.000000 0.000000 0.000000 0.000000 0.000000 0.000000 0.000000 0.000000 0.000000 0.000000 -0.000000 -0.000000 -0.000000 -0.000000 -0.000000 -0.000000 -0.000000 -0.000000 -0.000000 -0.000000 -0.000000 -0.000000 -0.000000 -0.000000 -0.000000 -0.000000 -0.000000 -0.000000 -0.000000 -0.000000 -0.000000 -0.000000 -0.000000 -0.000000 0.000000 0.000000 0.000000 0.000000 -0.000000 -0.000000 0.000000 -0.000000 -0.000000 -0.000000 -0.000000 -0.000000 -0.000000 -0.000000 -0.000000 -0.000000 -0.000000 -0.000000 -0.000000 -0.000000 -0.000000 -0.000000 -0.000000 -0.000000 -0.000000 -0.000000 -0.000000 -0.000000 -0.000000 -0.000000 -0.000000 -0.000000 -0.000000 -0.000000 -0.000000 -0.000000 -0.000000 -0.000000 -0.000000 -0.000000 -0.000000 -0.000000 -0.000000 -0.000000 -0.000000 -0.000000 -0.000000 -0.000000 -0.000000 -0.000000 -0.000000 -0.000000 -0.000000 -0.000000 -0.000000 -0.000000 -0.000000 -0.000000 -0.000000 -0.000000 -0.000000 -0.000000 -0.000000 -0.000000 -0.000000 -0.000000 -0.000000 -0.000000 -0.000000 -0.000000 -0.000000 -0.000000 -0.000000 -0.000000 -0.000000 -0.000000 -0.000000 -0.000000 -0.000000 -0.000000 -0.000000 -0.000000 -0.000000 -0.000000 -0.000000 -0.000000 -0.000000 -0.000000 -0.000000 -0.000000 -0.000000 -0.000000 -0.000000 -0.000000 -0.000000 -0.000000 -0.000000 -0.000000 -0.000000 -0.000000 -0.000000 -0.000000 -0.000000 -0.000000 -0.000000 -0.000000 -0.000000 -0.000000 -0.000000 -0.000000 -0.000000 -0.000000 -0.000000 -0.000000 -0.000000 -0.000000 -0.000000 -0.000000 -0.000000 -0.000000 -0.000000 -0.000000 -0.000000 -0.000000 -0.000000 -0.000000 -0.000000 -0.000000 -0.000000 -0.000000 -0.000000 -0.000000 -0.000000 -0.000000 -0.000000 -0.000000 -0.000000 -0.000000 -0.000000 -0.000000 -0.000000 -0.000000 -0.000000 -0.000000 -0.000000 -0.000000 -0.000000 -0.000000 -0.000000 -0.000000 -0.000000 -0.000000 -0.000000 -0.000000 -0.000000 -0.000000 -0.000000 -0.000000 -0.000000 -0.000000 -0.000000 -0.000000 -0.000000 -0.000000 -0.000000 -0.000000 -0.000000 -0.000000 -0.000000 -0.000000 -0.000000 -0.000000 -0.000000 -0.000000 -0.000000 -0.000000 -0.000000 -0.000000 -0.000000 -0.000000 -0.000000 -0.000000 -0.000000 -0.000000 -0.000000 -0.000000 -0.000000 -0.000000 -0.000000 -0.000000 -0.000000 -0.000000 -0.000000 -0.000000 -0.000000 -0.000000 -0.000000 -0.000000 -0.000000 -0.000000 -0.000000 -0.000000 -0.000000 -0.000000 -0.000000 -0.000000 -0.000000 -0.000000 -0.000000 -0.000000 -0.000000 -0.000000 -0.000000 -0.000000 -0.000000 -0.000000 -0.000000 -0.000000 -0.000000 -0.000000 -0.000000 -0.000000 -0.000000 -0.000000 -0.000000 -0.000000 -0.000000 -0.000000 -0.000000 -0.000000 -0.000000 -0.000000 -0.000000 0.000000 0.000000 0.000000 0.000000 -0.000000 0.000000 0.000000 -0.000000 10563.639827 5997.884365 5975.586522 6098.413481 2421.493059 6890.823921 -661.413992 8636.853025 4752.525376 -4305.796113 -11064.252971 -5964.468604 -4119.436342 -6080.519700 -3762.766952 -1968.709620 -1287.872284 -848.062303 -526.609604 -299.504212 -156.112163 -75.496364 -34.269570 -14.697017 -5.962770 -2.282792 -0.821046 -0.276152 -0.086528 -0.025192 -0.006805 -0.001704 -0.000396 -0.000085 -0.000017 -0.000003 -0.000001 -0.000000 -0.000000 -0.000000 -0.000000 0.000000 -0.000000 0.000000 -0.000000 -0.000000 -0.000000 -0.000000 -0.000000 -0.000000 -0.000000 -0.000000 -0.000000 0.000000 0.000000 -0.000000 10309.082972 8202.215555 9791.330023 6083.128765 -897.373509 8445.445714 1653.299739 2552.993195 2335.939133 -1595.011327 -3146.581910 3698.353363 -1146.822338 -4110.090164 -3124.105125 -2047.048263 -1336.634725 -868.488533 -533.871170 -302.100099 -157.222826 -76.057294 -34.561651 -14.842307 -6.030484 -2.312275 -0.833007 -0.280653 -0.088093 -0.025693 -0.006952 -0.001744 -0.000406 -0.000088 -0.000018 -0.000003 -0.000001 -0.000000 -0.000000 -0.000000 -0.000000 -0.000000 -0.000000 0.000000 -0.000000 -0.000000 -0.000000 -0.000000 -0.000000 -0.000000 -0.000000 -0.000000 -0.000000 0.000000 0.000000 -0.000000 10105.780588 9526.610936 8854.186063 7767.710671 5477.705362 6042.052320 4110.594732 843.095803 -1164.669696 -1948.929783 -2829.428740 -2187.397024 -4053.235170 -4192.997401 -3193.944384 -2111.238222 -1377.440153 -884.856561 -537.697566 -301.728874 -156.263771 -75.398980 -34.213683 -14.677796 -5.957507 -2.281533 -0.820761 -0.276084 -0.086510 -0.025187 -0.006803 -0.001704 -0.000396 -0.000085 -0.000017 -0.000003 -0.000001 -0.000000 -0.000000 -0.000000 -0.000000 -0.000000 0.000000 0.000000 0.000000 -0.000000 -0.000000 -0.000000 -0.000000 -0.000000 -0.000000 -0.000000 -0.000000 0.000000 -0.000000 0.000000 17735.423666 18158.858064 28402.960945 33660.698086 27847.356784 19884.893552 19948.635775 38820.242389 33610.316001 14545.608943 9203.440241 14318.332758 16726.774015 3260.621689 15909.357131 -3396.366834 -16779.047422 10439.631088 -16041.284855 -16295.124332 4323.521308 1350.261105 -9084.319589 -845.929258 2572.861872 -4818.358921 -6396.702983 -5473.317323 19770.141928 19574.705423 33320.009164 32738.984713 37108.358245 46621.982749 32672.209946 43933.962986 45526.973525 38435.039470 29574.394789 27789.694622 25869.850124 27126.383881 37818.682883 21587.851972 17727.151968 27655.318964 21332.697928 24672.749064 22170.746138 19085.281781 18095.588587 13570.793205 14832.936695 6129.579776 1620.558743 2377.869036 22839.150459 21451.358801 25015.088247 39115.618744 41576.169637 40381.490223 37535.533089 44121.925728 40360.144893 36472.787958 44272.884331 29597.033667 33555.531821 46514.092117 23646.598669 36189.922648 26427.197668 31589.159657 26809.610822 19320.760959 19011.647240 14054.170310 18753.542533 10587.572448 13245.741712 2520.181318 2583.568291 7893.788519 25232.655459 26834.264494 34509.119288 41179.903443 34419.283551 42335.026015 33477.210592 48239.672054 35942.623544 34803.376300 40039.823415 34936.882153 30177.002044 22828.255867 27807.138555 25387.979178 24973.434570 13088.066057 20878.500227 19504.351605 14614.590420 11658.370539 7192.655917 17084.890007 8458.261607 -74.837281 2164.333558 6881.934087 25587.003069 29086.321209 37925.545837 39638.918445 49311.118059 49749.695722 38939.324111 34371.556327 37297.404388 33068.371057 48768.015256 29367.902549 30100.786961 28711.677924 26083.367888 30917.812468 31855.617085 30662.555946 23250.262414 20865.407370 20211.756950 21130.679526 17008.184331 12196.041488 14677.991319 7030.454260 4980.918476 2027.281788 25209.857028 28670.829194 43928.818922 39319.303006 33263.519755 43955.005823 29273.540142 33238.599252 36473.029833 34326.727629 33136.622474 29699.066714 25173.990510 22402.759421 22334.344798 29380.126085 18318.039422 21720.043837 21306.041448 12425.725661 18777.954373 13940.010211 7257.810731 7311.440199 10645.953822 -5.950989 2616.081537 980.851763 25714.565087 29301.881299 40429.480318 39258.108177 34506.478157 27819.488409 39875.659298 30796.975601 27997.594898 36224.553407 27833.274406 28480.427580 30456.431648 20561.429833 20564.026452 24147.565057 16002.765635 18143.784337 6885.236688 26353.684649 14486.039761 8948.459301 9689.963386 8828.845520 7428.734452 2753.907818 5013.008765 3022.287044 26505.026569 25885.335474 24994.240451 37600.281535 33651.351944 37831.312957 36427.320838 32987.165936 31206.830278 30718.279060 21018.677370 21520.876641 18851.580958 23396.089367 19606.874519 13900.381755 7193.505460 20787.208600 16379.020250 6279.331107 18571.203078 12689.577836 8991.371167 7478.917300 7618.035927 1159.431615 1163.541442 1148.140540 26265.615387 25237.091618 28532.606148 34436.765494 25403.874865 29610.212043 26628.692246 25297.146327 31808.633431 24103.435659 23031.971219 23798.179418 22351.169806 14316.886600 17750.550489 11731.060149 15008.432189 8590.680616 12791.572282 12581.264171 14869.555857 10422.804327 5856.235089 4447.780218 7978.319194 -518.910636 737.926559 132.252944 26021.003129 24368.908077 23302.243385 28847.586361 29627.982536 29589.622019 27287.347311 24697.418874 23794.861660 25025.444671 18545.518213 21815.709046 16691.592333 16807.288075 15632.326520 7932.924440 12512.169850 11781.430568 8044.696531 9835.841403 14542.301723 5227.258232 7140.974794 9112.743106 10234.738455 3879.653471 2328.071348 2129.133417 25698.667180 30009.047205 41803.564225 32176.769799 31694.669357 34827.672705 26134.671228 25006.949365 20682.556078 25029.448713 19499.356997 26159.350152 18981.120058 12877.469129 12508.745623 17114.103447 12397.088063 10934.096665 10034.070652 10507.280676 6552.214273 9739.894671 8634.953023 10160.708126 11032.393504 2259.037431 -3292.941965 1925.125631 25461.309460 25130.109556 21598.431595 28764.098983 27576.201508 28512.343429 22956.341931 25646.299760 19208.915833 21916.779307 8940.664648 17298.372786 14416.932380 16647.665545 12727.759912 7772.311794 10170.572760 8497.233363 -2078.171423 8011.283938 7261.040980 31.244020 4201.299338 8427.755127 2709.193766 3965.876917 -3552.034636 3049.618755 25388.762007 30388.166170 42366.144265 28015.666246 22841.177485 27790.936515 23729.654381 18233.991246 18329.050782 19008.649091 13514.165433 11048.869286 6399.761249 9966.910807 9408.834080 -2980.895060 7933.724173 4641.854001 1202.701745 6320.134059 7775.173241 4921.441785 5352.402863 2362.991336 1447.431319 2944.935880 -1082.703669 1257.067141 25068.956058 24216.132767 28315.557830 25549.891646 24776.415629 25052.304096 16533.077625 17536.847066 11992.987417 12575.977250 15582.565268 9545.912735 6026.642860 6340.904804 4346.149762 -1064.652268 2624.354496 2336.458311 884.852317 -2125.457718 -1827.438125 612.007732 3092.567267 6608.513827 592.268685 566.447542 -3496.168156 1390.764128 25018.852006 26550.098808 31487.451934 22488.183021 24140.280096 20627.920842 18103.596575 14334.780086 15032.155674 11076.690988 9411.952347 4455.678754 -7824.451263 4009.829768 13641.458002 3778.383118 -7263.783775 3339.309082 7347.246133 16879.328635 2772.596199 -3783.583715 -2037.552953 131.513673 6884.872940 2350.334412 2101.455470 4413.288609 24485.591049 24084.821835 30737.197111 26020.556222 26155.030738 18828.423480 15920.358447 15102.964952 14916.860577 20289.921342 8578.136595 4408.592257 6339.474630 24475.690231 24362.321967 28216.753110 23334.815114 20528.919392 17524.564884 19990.171325 12262.919663 8512.808592 5476.701602 1534.609871 -941.866495 6099.028018 24680.058606 22504.837956 20867.704414 18907.614558 21142.631989 23341.865668 17576.033835 9425.387028 11534.238158 9117.301607 5550.291926 -7963.065090 -8776.858056 25123.137634 24010.533491 28237.007733 23182.055942 20791.777771 22277.612343 13881.760996 11239.887566 8165.655752 12188.979160 -90.161521 6395.303259 -528.756825 25192.324203 22590.157372 25362.269978 24335.705389 18390.702220 16939.293644 18593.243359 12229.963486 9169.214495 7188.039965 5562.947183 1330.147037 2775.566263 24594.614505 24454.289788 31342.194949 20818.150671 22213.362397 21204.273006 14764.906553 9392.377236 6147.565839 7704.914092 5740.122171 93.190425 5469.070982 24027.172663 25958.669579 28689.802628 20220.714673 17047.227235 17726.672415 12950.518709 15544.446956 -3992.648136 4810.666763 2833.677505 2111.288512 -704.909482 23654.122219 25411.446792 27275.959170 20927.183690 19334.436800 15280.842665 11173.778607 6531.578020 13249.700398 1728.138252 -4315.499579 -935.766386 4934.479333 23751.806700 25466.067386 28556.116751 18104.333319 18830.157021 17456.637913 13839.543281 4951.060073 12164.180603 8920.901941 995.703553 -4422.311233 4419.095951 23827.182794 23284.237955 23674.728600 19264.411083 22228.977636 18507.060810 10710.131163 13137.382791 4817.524987 1321.833729 4661.252329 1916.290866 -97.272307 24178.191908 20771.492687 19714.747376 18064.037836 12953.466408 16922.752159 9614.127762 9560.761482 1562.397706 7141.585099 3112.463325 8941.675299 6278.259427 24516.372791 24112.992065 22666.337349 15996.469793 16634.419502 15391.610362 14910.099341 9844.645551 8101.284077 3926.121946 -4955.988391 1877.350506 9573.058067 23776.937059 27168.729504 29381.106928 19092.302355 19320.771972 18925.296780 11539.288744 9948.299125 10132.764278 4106.121022 3763.904337 9615.520088 1860.462583 22803.771730 23533.961450 22580.608376 18312.057378 17266.144391 16338.524000 13950.700629 6920.418278 3637.688891 6265.910992 3331.752845 4776.317397 1997.549567 22335.867224 22306.449686 25599.534450 20523.445905 18520.116704 16760.483137 13651.374204 9942.160653 7322.477247 6869.850889 7714.319907 -927.948461 -4130.597458 22222.868946 22046.419390 16740.824757 17729.941549 19565.322180 15603.407283 12997.889331 7606.180212 8452.617193 6807.846262 -2226.084988 3130.018465 -378.646469 21858.921066 21069.007884 16769.014755 16795.416347 18917.959946 18422.496355 11499.753763 10728.541925 7676.430145 4450.770520 5343.210225 3643.544329 7886.527650 20811.741629 25008.707368 27996.582727 18532.547274 21293.328421 17915.893480 9882.145645 9485.704047 10183.119666 4950.353071 5695.920556 3923.670587 6124.619145 19465.361618 21225.040152 20669.813832 17750.327254 19219.866036 16725.830513 9744.363395 8694.449351 8957.944244 4937.549187 5009.661192 466.034410 2956.319814 19105.290738 17608.319614 12976.139287 21016.513181 19239.504333 16927.650300 12183.440306 9964.619455 8374.652654 5709.501004 3639.370513 3871.812722 -1409.943476 18951.876336 20546.027826 21796.566078 19819.482478 20276.992892 15851.548477 13349.817767 9546.253285 8048.812038 6499.524670 4224.625949 2338.133447 2020.071734 18367.611587 19286.606685 21351.111881 18297.810643 22177.605642 12339.474663 14591.368321 7752.155080 7492.101891 8289.468433 2596.637479 2232.727207 4953.067655 17959.409825 20002.067726 24760.534450 17821.468679 22810.008639 10741.282926 15149.675889 8730.498880 6439.136322 8823.309767 150.448118 2924.962063 -39.421596 17572.994881 17786.146746 19689.456034 17186.008568 22502.095494 12113.741587 14417.935746 11110.317780 5633.241164 8755.403503 -1549.097714 4593.646939 6334.637659 17342.276492 16497.560069 17041.966223 17653.387048 20975.641647 14477.674921 12593.346209 12667.472837 4526.721578 9282.301974 -2824.388544 6672.788159 5421.144242 17203.019962 16397.229595 19166.715485 19498.215975 18731.354611 16172.886044 11150.968191 13292.534653 3657.428762 10318.703814 -2300.958992 6585.904529 6100.902218 17088.065280 15887.029007 19036.996273 20817.124715 17218.035945 16964.100741 10677.468429 13483.863603 4387.099632 10270.741479 412.931058 5158.309994 6100.345247 17039.772564 15393.532680 18070.634075 20692.530399 16719.675774 16924.698414 11208.965028 12746.985283 6211.032474 8621.840161 3415.959210 3931.452981 6174.119727 17001.337412 15266.814419 17565.448597 20695.601721 16912.841086 16352.743246 12463.044988 11502.640737 8083.149307 6801.247782 5413.840465 1953.910058 5392.726428 16898.278962 15168.118362 17428.478041 21160.930768 17486.976874 15888.159269 13601.211946 10750.502131 9322.972193 5319.133406 7285.228176 -176.837802 5508.701409 16739.959812 14911.061368 17106.645961 21023.702535 17882.872571 15826.464046 14135.760568 10833.222376 10246.419615 4366.161810 8877.034779 -1626.654947 6346.979178 16586.090206 14670.632763 16696.829285 20189.023099 17832.654053 16103.536454 14137.426959 11160.956104 10881.698470 4453.949858 9701.028607 -2145.230368 7083.542226 16462.206220 14561.265278 16417.819371 19427.122647 17536.849864 16352.701153 13805.769642 11351.094888 10820.118627 5135.214393 9599.521834 -1668.394412 7487.162647 16352.316166 14581.387289 16664.668122 19325.398467 17130.468897 16384.622650 13245.925998 11323.900413 10280.964198 5714.422572 8730.951180 -593.338927 7059.256420 16239.516877 14654.230851 17328.782697 19575.444987 16708.812435 16292.569288 12652.613555 11023.778107 9537.098327 5948.408700 7492.019908 425.123947 5864.223602 16119.415336 14707.785668 18068.338984 19715.630778 16421.178410 16056.804184 12165.809248 10650.427228 8803.240666 5856.111324 6236.540015 1064.159488 4348.305649 15992.447117 14712.307671 18617.052925 19676.776934 16356.789230 15759.627109 11814.181113 10383.561042 8308.189858 5722.981585 5267.653139 1464.308222 3037.763498 15861.907307 14666.874494 18872.766635 19276.616845 16395.372272 15525.673850 11638.803611 10340.176040 8151.485662 5821.997876 4711.290402 1844.555670 2105.451813 15730.801047 14574.605444 18798.732034 18546.477639 16421.163571 15295.505893 11537.463721 10477.890022 8223.883490 6185.989316 4511.852693 2255.269563 1570.503758 15601.258016 14453.342545 18537.308841 17739.851693 16413.531032 15019.826513 11408.314051 10617.494564 8235.043080 6614.658907 4510.239760 2646.568450 1393.052967 15475.724652 14315.063796 18202.755079 16968.137972 16294.956594 14661.990113 11235.849025 10663.891894 7976.557406 6854.327093 4471.394454 2844.629783 1402.557058 15356.486138 14162.195198 17873.717057 16336.166340 16114.587508 14250.202242 11015.101341 10593.368811 7430.090618 6787.541590 4270.812007 2746.362903 1431.770013 15246.052408 13996.003211 17595.269132 15885.436565 15918.641051 13866.560891 10774.149482 10463.982640 6767.901026 6488.441600 3956.279354 2419.065647 1414.812455 15146.908265 13813.555856 17328.779324 15553.910102 15738.699928 13633.917734 10578.855693 10397.942858 6278.539087 6179.685444 3698.920640 2042.655429 1378.646670 15061.062769 13616.750783 17056.847664 15301.010855 15582.090369 13632.318173 10480.167237 10496.410484 6212.416174 6098.950085 3696.151546 1824.385809 1398.347914 14989.984619 13408.003772 16745.450223 15030.349407 15339.611931 13779.222041 10418.609161 10708.617539 6587.217897 6297.927500 3995.437376 1855.403207 1521.309126 14934.636850 13195.043089 16414.286978 14774.610022 15007.526380 14000.172507 10373.860752 10929.017639 7237.968656 6657.149603 4486.605510 2078.087357 1708.082884 14895.502188 12982.306555 16062.627526 14521.220793 14507.436860 14101.764514 10261.826217 11002.014697 7892.989875 6979.585561 5000.018575 2373.723950 1880.282538 14872.891298 12775.840000 15712.150349 14377.288413 13968.092650 14031.804877 10077.051281 10808.219071 8249.402703 7012.091892 5302.194506 2567.274210 1956.231182 14866.595719 12577.316359 15335.402483 14307.304462 13373.371261 13679.794168 9779.655608 10314.577087 8163.191314 6648.601582 5262.013904 2525.394822 1841.987651 14876.438884 12392.270543 14897.729329 14292.377653 12832.707312 13123.392524 9418.481428 9616.827513 7702.834338 5991.765252 4940.355021 2282.232994 1572.435192 14901.220447 12224.652082 14360.030114 14232.854102 12345.864988 12448.669642 9069.261692 8867.967941 7054.807783 5228.235529 4470.644069 1952.319678 1278.257285 14939.642473 12082.209388 13687.727388 14003.595502 11880.934819 11700.699819 8693.354077 8122.699824 6381.254546 4526.422367 3956.392624 1617.997212 1014.108834 14989.187945 11968.852002 12873.621082 13512.447506 11370.162954 10937.117813 8347.728606 7522.113346 5910.570607 4082.940078 3535.067049 1382.541665 861.099174 15047.177794 11889.336433 11984.881854 12837.751845 10963.024428 10359.539503 8131.816093 7135.986832 5754.928310 4028.358965 3358.959842 1380.704814 913.244828 15109.953778 11848.777493 11112.200840 12075.355819 10574.491667 9810.630565 7887.621749 6819.415092 5721.730755 4129.346256 3263.874122 1476.377301 1065.763162 15173.703494 11846.174268 10347.977246 11308.844118 10251.914218 9382.432586 7712.980477 6629.868042 5804.846847 4338.327375 3215.300570 1558.527303 1164.736727 15235.230946 11892.317095 9861.970933 10874.991181 10159.258819 9050.589098 7563.084516 6502.593925 5839.410748 4512.785219 3262.532768 1727.416853 1271.303017 15291.285587 11980.589788 9642.361105 10604.373945 10045.163768 8792.479784 7488.228763 6410.831706 5746.803173 4523.949600 3241.630862 1798.069603 1311.220497 15342.019044 12122.342291 9746.489184 10646.310035 10046.126892 8479.756039 7291.589194 6205.081194 5409.410876 4348.061372 3222.505693 1804.740605 1130.640833 15386.970714 12305.908080 10042.209149 10733.422901 9939.635459 8343.567587 7283.886873 6239.701017 5238.277299 4193.462405 3170.717186 1769.116664 975.600084 15427.489208 12514.418579 10452.589127 10875.109890 10060.412344 8365.543119 7327.562657 6299.310048 5107.780622 4133.945125 3233.551191 1817.414564 906.368919 15467.418203 12756.133047 10777.114795 10794.779266 9991.812110 8485.582803 7289.960171 6336.643169 5055.746958 4146.746234 3244.336994 1819.887924 807.356083 15502.572444 12960.912435 11072.597063 10713.206000 10225.479107 8747.545657 7497.604971 6659.368849 5297.239170 4304.986611 3207.115602 1763.898779 774.843383 15540.314862 13204.326315 11245.406339 10631.353195 10565.816823 9118.916834 7519.470357 6811.244937 5470.895520 4607.664367 3268.304984 1817.576336 861.475015 15572.817397 13360.139004 11480.237466 10820.461468 11069.854076 9348.490693 7541.124721 6881.258289 5505.239484 4536.753471 3027.343828 1815.009628 1003.699826 15613.791064 13582.248786 11690.078622 10806.608537 11270.983668 9257.739704 7504.039940 6779.689995 5310.776756 4739.938042 3009.729856 1715.609744 1057.126533 15670.283962 13789.767202 12083.264064 11336.015293 11582.925462 9682.136692 7827.648902 7070.330566 5196.611503 4258.147093 2602.207537 1539.039063 883.145056 15758.678009 14043.990734 12771.645796 12023.130170 12305.936967 9184.110435 7678.128846 6512.492300 4833.889852 4464.599983 2540.762832 1442.557513 934.599287 15916.144180 14566.946338 13286.441864 12334.265686 11915.205180 9662.493847 8034.090979 6628.488311 4440.964200 4176.325597 2753.670910 1443.559077 903.098881 16117.037976 14916.766389 13851.199838 11757.160812 12101.105410 8867.007677 8166.307867 7123.446911 5190.360987 4354.427524 2558.006095 1567.026462 508.651131 16404.402674 15713.681248 14198.777768 12095.829886 11453.498149 10626.689042 8096.970719 7198.266290 5157.351877 4570.611324 3873.839903 1913.600001 814.786295 16692.620763 15627.588952 14239.572375 11688.672382 11720.278832 9071.287803 7782.659304 5850.425411 5802.204392 4061.399305 2182.315620 2220.728814 1103.014215 16932.017748 15683.318403 12803.839269 11033.385846 10914.971561 10787.144949 7575.806296 7187.187348 5590.892138 5749.855335 3419.641904 2058.955295 758.240893 16913.645937 15365.354595 12538.273889 9379.100487 11338.401449 10896.006519 7559.176992 7697.256930 5451.659556 4116.244938 1825.774573 259.734907 654.619967 16808.424590 15118.555121 12705.377805 11068.995092 10561.692111 12600.432960 6734.769842 7636.560718 4367.844483 2430.756718 1392.658560 1276.158592 -185.391512 16921.814610 14529.318005 11607.189086 10857.258527 12246.004449 10850.690541 8101.204041 7302.956338 5847.174179 5230.389788 2900.571738 1369.294472 -67.302829 17008.741733 14515.223735 11539.445469 11441.376809 11204.490950 12150.334657 10026.494804 9504.912995 6072.581915 2979.599045 2476.636640 1265.181378 -1220.389846 16684.400232 13822.188565 11818.443967 12947.704905 11852.263649 9853.077626 7496.354026 6486.561985 7814.937055 7575.164502 5469.930412 3351.600483 1372.127849 16540.341295 12318.531691 8658.554867 13350.695382 10649.794750 11279.178468 11210.983257 10689.139777 6227.845022 3365.340497 2772.207540 1348.504255 138.087462 16865.593907 12780.063387 11518.567789 13297.241091 13488.175420 8333.772674 9129.147872 5679.988577 6953.674262 7717.166950 4196.287530 2100.228266 429.007928 17192.256780 14972.930853 16024.926202 19906.322467 7692.369406 8444.521878 7251.581978 5358.118400 4185.591594 3937.131939 2202.850611 -1147.629503 1242.357107 16910.951531 15754.522452 18671.875476 11260.979389 12075.215794 5710.587569 5162.568363 2610.224284 6966.913605 1605.086998 138.764027 2880.525444 49.319952 15177.344970 14677.814954 16902.877593 9071.929365 9199.298214 5832.968454 9113.795305 7514.100857 8074.051677 3603.016896 9755.904922 8227.000062 6938.752469 12199.657553 8156.440893 6342.600280 11368.967842 6436.076198 6652.062573 6297.679811 7943.461739 4520.673597 7906.986023 9715.222721 -218.654002 9395.857243 10563.639827 5997.884365 5975.586522 -275.002137 4743.162712 4071.112721 12968.262683 -3630.455821 9584.570317 6022.836154 4718.661352 4967.692290 5507.861811
</DataArray>
<DataArray type="Float64" Name="Velocity" NumberOfComponents="3" format="ascii">