<VTKFile type="PolyData">
<PolyData>
<Piece NumberOfPoints="2177" NumberOfVerts="2177" NumberOfLines="0" NumberOfStrips="0" NumberOfPolys="0">
<PointData>
<DataArray type="Float64" Name="Pressure" format="ascii">
 15447.351977 14987.617490 14243.137346 13330.981086 12337.209943 11418.060268 10356.358055 9080.500634 7939.132525 6677.444016 4988.776936 3658.845900 2891.343898 1795.352638 771.736054 454.691734 91.102062 -577.384674 -713.342778 -370.093139 -386.034454 -811.270992 -904.094032 -891.258287 -1500.713760 -2493.879978 -3175.327948 -3369.099303 -3190.838813 -2782.496005 -2270.465211 -1748.109892 -1275.110284 -883.070625 -581.474935 -364.456117 -217.654944 -123.962029 -67.383202 -34.983212 -17.356898 -8.233967 -3.736436 -1.622472 -0.674382 -0.268389 -0.102297 -0.037350 -0.013066 -0.004380 -0.001407 -0.000432 -0.000126 -0.000034 -0.000009 -0.000003 15256.145898 15163.038069 15334.923319 14712.423614 12846.809326 11333.458705 9959.399956 9003.220666 8537.597260 6435.122469 2809.325232 1468.821902 2339.167471 670.441287 -766.142313 263.641284 276.166934 -1465.791719 -1192.960010 213.925102 166.285581 -1362.299957 -990.585595 -39.724440 -1077.731492 -2854.438727 -3517.413132 -3576.648195 -3298.172793 -2826.964576 -2287.604009 -1755.174938 -1278.720352 -885.398255 -583.171372 -365.711065 -218.548937 -124.564231 -67.765133 -35.211389 -17.485543 -8.302552 -3.771076 -1.639072 -0.681940 -0.271662 -0.103646 -0.037880 -0.013265 -0.004451 -0.001430 -0.000436 -0.000122 -0.000032 -0.000008 -0.000003 15227.858785 16213.533171 19437.977484 19513.867025 14624.925334 11440.062988 5660.353035 7634.777275 8071.492074 4119.456069 -916.689380 -985.654571 4079.354037 -1352.989156 -4483.254990 1706.082328 1660.249622 -4358.596001 -2505.371423 2289.141693 1659.988038 -3467.441661 -1432.846232 2258.251290 -618.169098 -4086.254217 -4123.988989 -3890.386170 -3481.876941 -2885.621504 -2305.400014 -1760.211788 -1279.342473 -884.562400 -582.003978 -364.644768 -217.722539 -123.986325 -67.391934 -34.986338 -17.358007 -8.234355 -3.736570 -1.622517 -0.674397 -0.268394 -0.102298 -0.037351 -0.013066 -0.004380 -0.001404 -0.000413 -0.000097 -0.000023 -0.000007 -0.000003 -0.000028 -0.000008 -0.000003 -0.000008 -0.000004 -0.000002 -0.000002 -0.000001 -0.000001 -0.000000 -0.000000 -0.000000 -0.000000 -0.000000 -0.000000 -0.000000 -0.000000 -0.000000 -0.000000 -0.000000 -0.000000 -0.000000 -0.000000 -0.000000 -0.000000 -0.000000 -0.000000 -0.000000 -0.000000 0.000000 0.000000 0.000000 0.000000 0.000000 0.000000 0.000000 0.000000 0.000000 -0.000000 -0.000000 -0.000000 -0.000000 -0.000000 -0.000000 -0.000000 -0.000000 -0.000000 -0.000000 -0.000000 -0.000000 -0.000000 -0.000000 -0.000000 -0.000000 -0.000000 -0.000000 -0.000000 -0.000000 -0.000000 -0.000000 -0.000000 -0.000000 0.000000 0.000000 0.000000 0.000000 -0.000000 -0.000000 0.000000 -0.000000 -0.000000 -0.000000 -0.000000 -0.000000 -0.000000 -0.000000 -0.000000 -0.000000 -0.000000 -0.000000 -0.000000 -0.000000 -0.000000 -0.000000 -0.000000 -0.000000 -0.000000 -0.000000 -0.000000 -0.000000 -0.000000 -0.000000 -0.000000 -0.000000 -0.000000 -0.000000 -0.000000 -0.000000 -0.000000 -0.000000 -0.000000 -0.000000 -0.000000 -0.000000 -0.000000 -0.000000 -0.000000 -0.000000 -0.000000 -0.000000 -0.000000 -0.000000 -0.000000 -0.000000 -0.000000 -0.000000 -0.000000 -0.000000 -0.000000 -0.000000 -0.000000 -0.000000 -0.000000 -0.000000 -0.000000 -0.000000 -0.000000 -0.000000 -0.000000 -0.000000 -0.000000 -0.000000 -0.000000 -0.000000 -0.000000 -0.000000 -0.000000 -0.000000 -0.000000 -0.000000 -0.000000 -0.000000 -0.000000 -0.000000 -0.000000 -0.000000 -0.000000 -0.000000 -0.000000 -0.000000 -0.000000 -0.000000 -0.000000 -0.000000 -0.000000 -0.000000 -0.000000 -0.000000 -0.000000 -0.000000 -0.000000 -0.000000 -0.000000 -0.000000 -0.000000 -0.000000 -0.000000 -0.000000 -0.000000 -0.000000 -0.000000 -0.000000 -0.000000 -0.000000 -0.000000 -0.000000 -0.000000 -0.000000 -0.000000 -0.000000 -0.000000 -0.000000 -0.000000 -0.000000 -0.000000 -0.000000 -0.000000 -0.000000 -0.000000 -0.000000 -0.000000 -0.000000 -0.000000 -0.000000 -0.000000 -0.000000 -0.000000 -0.000000 -0.000000 -0.000000 -0.000000 -0.000000 -0.000000 -0.000000 -0.000000 -0.000000 -0.000000 -0.000000 -0.000000 -0.000000 -0.000000 -0.000000 -0.000000 -0.000000 -0.000000 -0.000000 -0.000000 -0.000000 -0.000000 -0.000000 -0.000000 -0.000000 -0.000000 -0.000000 -0.000000 -0.000000 -0.000000 -0.000000 -0.000000 -0.000000 -0.000000 -0.000000 -0.000000 -0.000000 -0.000000 -0.000000 -0.000000 -0.000000 -0.000000 -0.000000 -0.000000 -0.000000 -0.000000 -0.000000 -0.000000 -0.000000 -0.000000 -0.000000 -0.000000 -0.000000 -0.000000 -0.000000 -0.000000 -0.000000 -0.000000 -0.000000 -0.000000 -0.000000 -0.000000 -0.000000 -0.000000 -0.000000 -0.000000 -0.000000 -0.000000 -0.000000 -0.000000 -0.000000 -0.000000 -0.000000 -0.000000 -0.000000 -0.000000 -0.000000 -0.000000 -0.000000 -0.000000 -0.000000 -0.000000 -0.000000 -0.000000 -0.000000 -0.000000 -0.000000 -0.000000 -0.000000 -0.000000 -0.000000 -0.000000 -0.000000 -0.000000 -0.000000 -0.000000 -0.000000 -0.000000 0.000000 0.000000 0.000000 0.000000 -0.000000 0.000000 0.000000 -0.000000 10449.847078 11354.328368 14564.837031 10391.887327 9138.863670 11542.818265 6157.798460 3681.464346 4455.612618 -2267.838359 3065.006920 2058.635990 -4885.614135 -6254.283409 -3266.478606 -1954.569466 -1532.893756 -1223.879122 -910.286647 -636.277057 -422.845593 -268.092232 -162.309945 -93.927746 -52.013483 -27.586982 -14.022944 -6.835118 -3.196251 -1.434616 -0.618318 -0.255970 -0.101788 -0.038876 -0.014256 -0.005017 -0.001694 -0.000548 -0.000170 -0.000051 -0.000014 -0.000004 -0.000001 -0.000000 -0.000000 -0.000000 -0.000000 -0.000000 -0.000000 -0.000000 -0.000000 -0.000000 -0.000000 0.000000 0.000000 -0.000000 10353.074942 9952.410933 9667.240161 6211.846331 9208.943184 11899.663903 11852.403437 7460.888985 3333.000205 -3387.897381 483.768381 4590.628935 -221.546453 -3679.608210 -2686.119131 -1852.875783 -1513.492868 -1217.233589 -908.399671 -636.480210 -423.635507 -268.873784 -162.918915 -94.352736 -52.288866 -27.754842 -14.119727 -6.888043 -3.223749 -1.448212 -0.624726 -0.258853 -0.103028 -0.039386 -0.014457 -0.005093 -0.001721 -0.000558 -0.000173 -0.000051 -0.000015 -0.000004 -0.000001 -0.000000 -0.000000 -0.000000 -0.000000 -0.000000 -0.000000 -0.000000 -0.000000 -0.000000 -0.000000 0.000000 0.000000 -0.000000 10395.182878 9491.114673 7859.258247 6206.235164 6290.619726 5908.360609 5112.440795 2615.982886 864.672153 -1412.383490 -2488.211882 -2188.557970 -2588.701637 -2805.847444 -2187.972233 -1754.527634 -1497.777787 -1211.031012 -904.816515 -634.549577 -422.464166 -268.045616 -162.316485 -93.934656 -52.016611 -27.588121 -14.023311 -6.835224 -3.196277 -1.434621 -0.618319 -0.255970 -0.101788 -0.038876 -0.014256 -0.005017 -0.001694 -0.000548 -0.000170 -0.000051 -0.000014 -0.000004 -0.000001 -0.000000 -0.000000 -0.000000 -0.000000 -0.000000 -0.000000 -0.000000 -0.000000 -0.000000 -0.000000 0.000000 -0.000000 0.000000 15350.089445 16753.978086 18639.760632 18077.079372 13817.662760 11467.946228 21.913003 3691.060476 3313.176366 -1447.980394 -3818.923723 -1917.983543 5954.112716 -2370.003920 -6742.025668 3181.868470 2483.431289 -6201.057668 -3319.969020 3542.507874 2360.450330 -4516.048606 -1749.807887 2986.018563 -949.966225 -4879.653742 -4394.608666 -4016.741370 15848.563234 16011.299928 10079.355424 6654.409481 14757.183291 7843.099956 8282.011705 11216.074548 14146.676301 12331.467340 9524.769323 14192.975233 7838.652490 10772.573910 12500.730214 5004.723756 7173.222608 18482.318675 13119.770051 10586.355844 3723.794842 9416.147900 4511.925778 11971.377505 5084.333273 4670.367694 296.233057 1362.016588 16589.177640 19456.896199 18462.093216 12889.712251 9061.797614 18106.976676 14091.176536 15426.749539 8679.446407 13176.281736 8899.957204 3771.076521 11905.872976 6432.463730 8731.217120 7200.136612 7676.425678 9376.492440 2564.825962 6494.220729 2200.862323 4074.195434 6268.624076 -1060.838849 6409.115773 618.816027 618.684643 968.138543 17349.124038 18177.408012 8541.763829 9685.803710 14616.032024 12882.541136 16361.313837 8378.453324 9916.334562 8484.570075 3447.097289 10991.523410 5567.709483 8647.421489 6014.203561 6298.884922 9743.202021 7411.853842 4961.144319 2144.746430 4249.243237 -5292.911619 6674.381793 -2321.100832 1334.672055 -56.969089 691.241924 -708.637190 18288.512952 23672.790958 31392.509109 13461.140072 14277.373393 12684.035259 16922.988242 12242.132971 17553.828026 8674.990949 12946.199716 11026.777599 8532.319829 5011.083157 7742.736789 11657.544894 16298.321147 4241.340846 6919.788976 6205.134144 3848.601234 -1268.361729 3869.156295 1740.748509 -1688.946984 1509.433038 -381.481142 -149.722932 18892.478000 19445.993008 17857.473725 15165.800932 20399.781541 12954.602341 14773.957650 17258.479406 14131.138473 8150.882166 13507.909099 11198.900190 11558.137987 10132.401087 12440.167177 8136.303493 3729.531766 8928.381316 12044.974443 12110.708298 8295.550047 4916.545594 -4819.330523 7478.135750 2221.830767 -260.541331 -1604.402628 156.942703 20082.463627 19861.764905 15423.252894 15859.959325 18565.341509 17230.353827 14342.932143 11634.691403 13110.604419 13393.003128 16539.793134 12882.924027 17247.534970 11379.259093 16430.715528 6596.435934 9901.402372 9492.375188 2258.338195 8794.045621 5425.980375 1928.876096 -301.338061 5258.846108 5246.418295 1693.912370 134.522043 3328.787961 20758.404665 23716.432207 23032.259957 17161.815068 16065.590598 20114.193328 17884.851180 16634.019648 11455.564158 16915.716949 12014.639498 15289.231703 5256.083694 13974.360051 14700.018070 7697.005542 9296.432235 16859.336844 4291.108247 5667.397027 1477.974498 2284.945858 333.031518 -2224.282977 -843.742169 4413.930688 1985.668489 1955.399353 20508.450054 24131.480914 23203.082498 16290.745090 18918.249027 15974.177365 17629.120761 11375.595776 17498.026354 10519.456389 12625.639827 11630.880459 15709.696581 8907.105558 9994.972351 9314.317098 8511.969006 9946.125196 6816.305265 14138.057971 11327.053614 3671.008083 1387.727463 10649.024132 7519.031442 2306.922357 8147.602958 1960.326885 20532.657311 18076.937080 10718.539516 15510.861672 13974.496447 18870.458594 17234.432395 15466.546764 15493.623005 12455.498096 11134.390693 12159.327444 7198.238750 9842.368109 9366.609440 3989.217938 10502.417354 9607.899332 7046.470263 8397.729765 4447.279016 7700.631721 -1763.962751 12746.669874 9361.221008 2345.095869 4818.874899 2596.595298 20764.907918 23118.456603 25584.053822 15586.787907 16543.540205 19448.822690 16207.111442 17618.283372 13641.851169 14749.061268 10494.545217 9197.302941 7338.899969 6348.289769 6857.590363 7067.270118 5727.112753 9492.224145 10079.120686 1658.554356 4287.790729 8489.752123 8092.948104 5954.472916 -1704.974806 1439.113436 9698.448006 7807.337789 20474.561007 20721.437290 15103.836360 19484.968736 14275.122774 18683.236440 19808.707762 17223.423043 13625.839432 14167.429133 7902.224460 13415.251546 11982.122318 10324.219853 6867.649382 9364.186328 10565.745376 6839.485861 -715.085778 3233.787570 31.273889 7078.211769 12277.916258 747.307764 10433.555240 7447.046683 4918.510444 685.024601 20429.613134 21807.557356 16414.817044 16193.225243 18001.188850 17385.066903 17330.200542 13652.759207 19249.700902 13937.169660 14894.491022 8560.303486 4881.400487 8040.834450 6718.151496 1940.246964 4813.113785 -3774.969844 6701.208112 5572.918578 1875.907777 5963.674898 4190.638018 4415.754390 2694.941692 -1437.052081 5372.896390 7040.219593 20016.164554 22183.697997 16667.980471 19251.200451 19715.124254 14228.155564 13939.433261 15287.794944 14250.670227 11069.664987 13462.002555 3924.643077 -1373.442385 -13094.015862 -6001.011094 -233.168520 4237.751979 -43.589769 3424.818517 8180.815374 -1181.998097 3650.036643 3717.518977 7934.502070 -11722.279322 -879.149311 -317.678997 2704.423693 19301.473978 22241.377459 22886.206186 16483.773496 15561.342838 13629.834503 15860.223273 11941.025900 7248.694606 8721.605095 7262.263552 3497.697532 7682.535296 -2367.566406 414.027255 -812.016070 12959.003480 -2247.741735 6443.169694 -41.284135 5749.644560 -2741.001069 5247.570521 2918.450266 4624.026212 3422.987710 158.884072 13482.390103 18719.605789 20959.575318 24681.621104 18311.562503 19580.328222 15644.918843 13771.192124 7531.265789 7436.845641 6131.785501 5958.928245 -480.696537 -23140.847514 19120.267875 16775.731878 11632.527399 18275.996962 17008.072916 15043.938544 10625.679733 8044.931948 6199.949015 2484.702287 1441.676546 5111.585908 -114.463218 20243.875091 22572.236699 25003.844002 18990.812139 18817.665743 15450.978025 9388.733327 7104.730360 9969.151625 5440.444658 777.982349 3446.423248 1305.312613 20902.655401 20760.061726 16196.148721 18765.743650 19379.215652 16149.030941 12763.425865 12057.803007 5606.943901 6314.955827 6897.200098 4149.104908 -1965.084423 21401.662196 22740.127538 20356.871103 17663.322049 14428.935416 10303.734244 12170.160245 8646.849412 7223.173205 3281.292640 4256.119021 -1159.374692 594.585833 21651.825779 22574.046659 20350.592484 17364.304368 20057.563019 16364.343130 16997.612911 5361.286387 5043.010396 -3251.749211 1520.255719 6693.354469 2126.313129 22084.717109 23940.905803 21947.115153 17094.277427 13604.705946 12956.782409 17443.558557 8919.551508 3593.824342 4505.081083 803.878068 3620.855545 734.611858 22177.360496 25321.066149 20823.740616 14419.155359 16141.947320 11825.816709 12414.634925 1646.969790 7420.562143 2952.411187 -4360.877496 213.780816 -2098.172042 21795.217898 23493.305147 19055.379426 13455.821610 15502.202522 12958.446663 10456.337491 6942.686009 10248.846070 2725.937880 2784.017206 5147.004228 -2633.862775 22220.748824 21778.511594 17718.723481 18469.971363 16031.313470 13013.087846 8617.744693 9061.926827 6731.771532 6827.800168 6483.360195 3176.810919 7075.095587 22932.647999 23838.222855 22677.680933 16283.844062 11852.460550 13955.881701 12994.856981 5558.504844 628.002190 4001.523165 5184.860736 10892.171230 9265.520161 23420.507689 24522.681469 24405.325497 15125.807774 14550.828360 13667.440767 11520.218869 6922.588445 9411.055612 4838.653233 -4704.513018 5528.395425 -1543.150817 23756.295908 23440.340287 19793.216895 16565.278111 12149.730845 8831.697296 7680.765424 12267.277674 5405.496293 408.428478 2666.753263 377.848931 -135.460966 24090.642988 24656.244968 21959.789635 16369.445147 8902.808066 7828.821986 10624.710473 8245.435581 6987.821837 3973.231494 8386.247836 5908.872319 3139.007497 24382.905777 22717.840429 16766.160723 16480.285491 10465.399268 12464.700993 9641.606979 9081.052564 4361.066761 4753.756275 3542.381567 3497.530241 8834.342691 24392.885656 24226.195162 17861.604235 17911.403372 15653.200315 13405.506003 13377.970087 15208.238148 10089.031468 8137.795581 7214.034101 7906.313547 -3324.482649 24045.868508 22820.585289 17916.275544 15388.095121 12950.680892 8703.478056 7931.810910 7504.991039 5842.150112 5125.216030 8226.202840 472.404639 798.121037 24170.275971 22457.759045 18173.341718 16278.459903 16442.212306 10739.282271 13378.823879 3888.399458 9808.255384 2543.195843 3299.128484 1924.685754 7951.803915 24225.563634 21858.983475 18134.407957 17860.489494 12181.156298 9935.876651 13234.431539 11007.767506 10881.544005 6099.290376 5873.030923 3581.615128 7291.581457 24486.035957 21784.871631 17313.354596 13879.621359 16196.544601 8597.476404 8908.276464 10206.483315 10460.850805 10189.033061 7242.122905 12602.746872 2752.537382 24660.262040 23283.595100 20336.058493 18623.039129 14480.026837 14364.923405 7839.255038 8241.858714 10812.670232 7625.294586 5459.099219 3228.708153 -7408.270260 24886.236197 22242.770897 17707.968824 17999.614273 13897.102705 14429.291031 12535.635603 11357.234819 9251.942223 5549.665755 5186.255492 8393.926506 9896.832200 25096.389920 22917.480779 18609.192237 16784.132708 13356.301442 11914.915986 12610.584413 7116.042612 5814.876455 7697.647329 9668.767660 2345.291043 -1788.025340 25153.285770 23988.378308 17395.167868 14308.647505 20096.168268 13628.933689 9842.571186 9801.614399 7900.116026 7638.986433 6141.441455 6248.583864 5735.842702 25456.028178 20866.494225 16233.586857 13040.417247 18466.061938 13088.147962 9049.778913 8229.741701 12166.224181 8885.334521 3868.054269 4088.327968 3599.491879 26356.604329 23330.957142 21471.234084 18156.857998 13247.358852 10759.774959 10430.225441 15399.646397 4287.181353 7982.922050 5804.543685 4434.174431 1922.682180 26911.607838 24832.193089 17628.953380 14469.278287 17968.207373 13231.677410 12514.235990 11621.298182 7727.743636 10407.707712 2148.982607 8642.068082 7876.626017 27047.606066 23196.031554 11084.251355 14316.240993 21664.876915 13329.199446 10108.148177 8338.316618 13142.485986 4225.425546 7403.080145 -1499.292569 3296.162366 26993.208530 24464.015190 22666.252206 18859.960497 18977.572446 10920.916707 11030.330310 7573.045399 7715.767602 7966.679856 6301.230451 6070.760788 1601.441737 26571.656909 23486.636989 19341.124214 15601.282506 14641.540268 12285.358267 10354.655255 13399.778363 12544.390590 2522.174601 5011.131769 8500.102731 -2380.711196 26598.098000 22324.381326 10386.323157 14768.579589 13249.028742 21818.944924 13221.048173 9984.602639 10214.263782 7494.650312 3625.951079 1450.769840 13528.539407 27449.604903 22049.756150 15512.856317 11929.043977 23890.186921 14726.622849 14104.860986 9453.000074 4752.531166 8443.152007 11108.121692 12049.166802 -4385.917912 27983.002997 25605.446657 15300.777144 19789.575590 8886.264123 12906.708805 18103.756612 10205.812600 7045.846799 8118.705605 8256.697205 9863.162348 6892.908917 27261.529002 27711.397999 20755.349421 14498.505719 14428.796154 16764.926205 13944.894229 11581.986601 10822.517071 7660.144284 5689.066288 5059.010304 9060.584115 26229.508893 25237.629882 10775.416480 21451.851275 16778.447075 15035.751193 12825.803065 12692.225662 3925.266908 7693.812415 8333.502374 19186.526443 -39.911571 25656.361547 24501.090611 15715.749632 17624.949101 23961.478318 15741.874515 16773.938236 12793.865734 7236.641221 6553.191426 14404.115985 10370.077362 19070.187386 25486.907362 23918.727248 20966.026433 12705.066887 19053.212962 14643.488774 12260.694136 12225.473862 16440.984307 8034.327001 -1961.569363 1399.761355 11274.287717 25188.030115 24471.523223 19796.437136 22419.852895 18416.213088 17522.785691 11916.416337 14806.092779 13222.780304 8554.059524 5332.751773 10486.037968 14711.774177 25444.160919 21156.981588 9671.541800 25593.641949 12774.808014 20525.299736 10713.513620 15155.591083 13183.498041 6899.459819 7594.149895 12733.406068 16957.286364 25225.859651 23893.815315 13018.228499 19146.736202 23205.070859 20987.764765 14030.952075 11884.749983 15613.990720 10147.082496 7188.805356 280.359139 16566.050349 24051.579194 22343.978210 12587.929783 11295.052257 17372.438483 17383.519860 18887.308457 10911.562990 18460.924508 10996.584475 10884.058515 9827.175095 -12696.700149 22933.517580 22344.638189 23378.784806 16266.475133 23806.988286 12995.412335 21067.358138 11170.191899 16968.419054 6111.372959 5423.273527 5637.656757 -5535.600292 22479.519230 24205.258067 24443.792415 10177.322487 28056.068530 12894.536721 16764.547613 12692.219031 16033.583785 8044.802026 9440.222948 9166.327477 11934.226655 22266.223878 21793.954590 12991.468195 15002.090342 25804.467875 16926.956999 11939.460605 14629.412190 14283.648314 9768.719498 10434.848318 6300.127571 6046.835816 22090.800957 21499.826172 9693.935597 19168.605932 25203.341411 19680.429299 12158.875377 16943.163085 12120.886115 11316.697495 7856.431250 6920.593468 5496.403691 21600.034122 24895.927367 20819.802571 18801.354824 18427.684077 20295.909347 15181.591968 17800.137146 11366.869170 12361.063544 7983.695562 4839.332008 -1387.997191 20984.262841 28495.745657 35406.164533 21894.366452 21199.551734 20130.678251 17175.916003 13873.063503 12241.844363 11769.980545 6497.643752 6180.314926 6697.399154 20714.855002 23998.525309 26550.734310 19771.757341 19195.133230 18644.632295 18578.861489 9058.231826 14645.494151 11633.384967 3685.825096 9015.311540 8509.740782 21320.632043 23168.388662 24360.694043 23191.727496 24310.684441 17658.971514 20524.789706 9223.901829 16094.359440 12846.932827 4176.594592 9566.416349 4096.306013 22170.500149 23678.334410 22173.631958 19384.016215 27241.912303 16095.673284 21581.977889 12246.878478 15178.364804 14581.043028 6565.502538 7808.314568 8055.004526 22203.871298 24197.225411 24984.377408 22884.766027 25802.754050 13216.781960 22275.562091 15267.942426 10612.967319 17156.540088 3162.548980 8235.630988 11628.995662 21476.112464 24189.538588 26867.369361 21826.390519 28751.263557 17599.619900 20818.564776 17949.227812 5966.684331 19398.132849 -3949.849367 11634.165104 15134.390303 20774.078237 24827.487473 29797.956164 20219.118788 27875.803106 18951.040620 19237.568370 20034.661380 5330.185182 19704.329579 -6196.659859 14989.289033 17201.572502 20692.382243 25483.636219 28620.999205 25406.680678 25327.167299 24043.526554 17277.817194 21470.307403 5115.781773 18413.472785 -3125.483481 15209.702718 13202.472709 20920.652180 23242.967861 27178.006543 23037.307090 24877.987956 26273.386079 14568.458627 22474.903588 5215.864805 16828.452431 2658.648392 10936.810520 20054.944531 21145.338553 23141.720530 26477.103908 26468.716786 26890.698690 25293.040698 19021.595326 21222.618905 10551.976343 13745.990738 8326.613228 5090.267986 19404.122374 20753.770758 25472.740124 31124.030824 25826.501648 26229.063542 23616.338882 19717.690388 18109.628887 12318.417993 11864.806420 10966.772093 1397.927289 20312.177077 20009.104993 23801.982499 24251.815859 26457.851277 25367.297370 23057.543325 20907.463132 16705.077133 14629.124806 9356.870532 11910.269054 -101.284181 19215.108640 19350.948582 20091.813582 24150.075334 24857.858929 24333.130232 23514.725298 20889.800431 15868.980158 15142.474213 8904.730027 13742.793458 400.250794 17804.689025 19235.671431 20164.153063 22486.129765 24408.303659 22649.002783 21450.781043 18877.627029 17272.085487 14180.571170 8792.717029 13562.639282 -289.937486 17665.115831 19037.109827 20908.959067 24097.348611 25065.858182 23955.048658 22573.315794 19777.600779 16617.049116 15583.152959 7389.417424 15248.789605 -1333.977357 16093.180381 18758.577918 21936.917196 28398.812309 23809.726146 21495.466287 21586.420202 20506.359851 16556.500665 14636.999700 10645.758308 11783.804555 1307.133359 13154.091430 18517.562707 19653.529198 24123.354760 23397.968863 22390.113459 22526.350439 20149.240783 18663.270878 14445.879652 9696.799317 12004.556686 682.664038 11381.962199 18452.113423 20177.565662 25780.115524 22844.456522 25675.471465 24613.342802 19171.511562 19580.977800 16688.872067 11024.475652 10980.129938 3972.825905 6846.476343 18277.218848 20096.494287 26809.626276 27433.935258 27062.220844 26193.327848 22583.288415 19070.373433 16856.027066 11196.367676 10365.203698 4328.225279 5790.195557 18227.086328 20889.389654 26735.867055 24823.537644 25956.049164 27379.821071 20844.699539 20139.871842 15739.023170 12014.519310 9349.849298 6459.138977 3640.644255 18174.426931 21769.198679 29619.332619 29079.606552 26080.845494 24795.830413 22957.679367 18777.730807 16747.642805 12204.808011 8508.893822 4414.673472 4248.305094 17991.261629 20162.336147 25128.155757 25974.799028 26548.449147 23311.101463 23157.019374 20825.975789 14630.433927 13722.187245 8988.207915 6065.504346 2897.079900 17737.275029 19600.262091 24752.978378 29639.607046 27924.101869 24549.045328 24173.896954 18545.628794 15896.775380 12535.767308 8563.925432 4716.544581 3339.203889 17383.407163 19607.893698 28392.504383 33244.678282 26697.772293 26357.970416 23363.338733 20729.491520 13839.801865 13215.367964 9133.600427 7791.010821 2695.593597 17009.890287 17945.811138 24241.180945 30700.208920 30049.239299 24104.836554 23924.752647 17952.077998 15243.157806 11535.537928 7518.295748 6430.473238 2415.077792 16811.840586 16687.935368 22896.415271 30399.866630 25191.205112 23490.530874 23789.575858 22025.461591 14975.976956 13099.703782 8760.680532 5859.056180 3567.838120 16678.225664 18714.636371 26964.616788 26752.940261 25879.647437 23099.428777 23296.785332 17938.573450 15364.297475 10218.338364 9696.066304 6194.673341 3974.241455 16635.098039 20225.380199 29549.826197 28453.825917 24895.891319 22346.599575 22448.739296 22642.091662 15092.587425 12702.904626 9367.635683 2700.767333 3655.055680 16747.761986 18944.799645 27126.958375 28612.399399 29081.141156 20280.031932 20709.220346 16492.753963 14882.562046 12166.318083 8944.096220 7201.177526 2543.840630 16846.894686 16208.018230 20578.859043 25105.538321 24107.432158 20803.037555 21404.759492 16774.709701 15389.663899 10087.145933 7826.635684 3389.404915 813.415697 16629.855342 17050.106467 24109.481908 24563.574379 25931.758131 19497.276489 16027.561995 14006.877622 12676.914319 12681.656131 7047.502607 2505.961166 2468.651812 16414.586576 16590.938194 23800.470867 25120.753916 24037.026632 22019.348643 16725.412983 19562.268376 10379.698899 7191.455233 7139.402859 1980.295771 -691.533064 16853.728814 20445.927011 34647.309553 24955.893326 23813.167392 20109.557654 18997.212244 9890.439685 13910.502548 10868.443693 6626.334560 5200.495613 1032.970977 17193.483383 20717.655346 33674.472155 26249.779103 17294.295121 19842.943564 16940.655031 11487.779427 12964.938070 2734.017155 5537.105807 5051.081628 -412.818428 16715.590094 17919.011140 26104.699884 23638.165823 18221.835729 14152.920144 13114.960853 15889.710156 13918.577398 9054.307318 5444.177689 7688.452220 393.163056 15709.931449 17019.459475 22670.286862 20544.613312 15411.820691 20497.420473 22299.031591 15554.963700 11419.868472 8333.843022 4899.745643 1242.764154 1020.287751 14149.743487 16799.557255 23942.494590 13864.434940 19236.029806 17338.248788 23103.879252 13512.687783 14104.672943 12683.517986 13735.292402 12009.863870 2569.216110 12399.346807 13746.346330 17068.567478 16739.798573 15144.142319 15092.763730 8840.716418 16530.811031 14418.758515 23186.887115 11610.963160 4643.829872 7983.828555 10908.491050 10853.726621 12753.795696 18294.044207 15794.021315 17442.914043 11159.358138 14403.177475 17189.612042 8141.084874 13004.130911 4108.526686 8449.701374 10449.847078 11354.328368 14564.837031 11448.142849 12793.551251 10294.209159 5971.650703 9158.186645 13043.550912 7348.214179 11786.659853 8522.242854 6358.090287
</DataArray>
<DataArray type="Float64" Name="Velocity" NumberOfComponents="3" format="ascii">