<VTKFile type="PolyData">
<PolyData>
<Piece NumberOfPoints="2177" NumberOfVerts="2177" NumberOfLines="0" NumberOfStrips="0" NumberOfPolys="0">
<PointData>
<DataArray type="Float64" Name="Pressure" format="ascii">
 16801.639021 16483.397449 15885.383587 15074.972762 14074.678611 12898.542979 11664.633638 10372.786697 8963.715091 7495.177681 5999.258749 4384.751763 2504.781224 436.648990 -1410.653487 -2719.618104 -3476.841095 -3816.523707 -3884.021115 -3793.459725 -3623.017542 -3423.072366 -3226.046957 -3052.445080 -2913.497751 -2812.426312 -2745.654789 -2704.350207 -2676.585105 -2650.222416 -2614.818954 -2562.595335 -2489.362630 -2394.601724 -2280.686321 -2151.774841 -2012.748284 -1868.391217 -1722.876102 -1579.523363 -1440.766103 -1308.239550 -1182.927542 -1065.319270 -955.549978 -853.515177 -758.958488 -671.540714 -590.908044 -516.803494 -449.338963 -389.599909 -340.353680 -304.858661 -283.618372 -274.519268 16665.559860 16307.343144 15628.799146 14781.975337 13753.243500 12383.851747 11206.417603 10080.983177 8552.984357 6963.300331 5553.018843 4115.278448 2185.158473 -195.950326 -2116.061320 -3212.356427 -3766.427546 -3986.312720 -3983.632472 -3851.848400 -3657.612140 -3444.189404 -3239.529168 -3061.458089 -2919.724874 -2816.858836 -2749.114510 -2707.549258 -2678.667214 -2650.795752 -2614.715301 -2562.271009 -2489.003731 -2394.284234 -2280.443325 -2151.616675 -2012.671172 -1868.383300 -1722.922165 -1579.608149 -1440.876238 -1308.364320 -1183.058910 -1065.451414 -955.678455 -853.635333 -759.061438 -671.601332 -590.847290 -516.374312 -447.806753 -385.505730 -332.462869 -296.560816 -277.014465 -269.333429 16548.350241 16180.329507 15886.089503 15226.016973 14141.313605 11374.324758 11592.097739 10851.771105 8358.923539 6701.059632 5378.109714 4065.029058 2095.084491 -1388.785489 -3391.512308 -3889.644056 -4115.890553 -4181.130154 -4096.303079 -3917.608854 -3696.449945 -3467.761385 -3254.437399 -3071.305039 -2926.458477 -2821.695836 -2753.454281 -2713.739431 -2683.960991 -2652.187900 -2615.225119 -2562.662015 -2489.364549 -2394.596465 -2280.682859 -2151.773194 -2012.747593 -1868.390945 -1722.875997 -1579.523317 -1440.766065 -1308.239463 -1182.927270 -1065.318384 -955.547075 -853.505670 -758.927350 -671.438742 -590.574215 -515.709267 -445.785748 -377.344694 -313.871791 -280.491222 -265.688690 -260.672980 -276.321917 -260.992747 -254.643565 -240.903982 -235.416767 -232.278406 -206.085038 -204.766085 -203.535621 -177.625525 -177.270953 -176.840857 -152.973992 -152.899613 -152.733988 -131.410956 -131.416697 -131.337484 -112.528190 -112.555382 -112.505703 -96.028534 -96.059611 -96.021651 -81.658902 -81.688702 -81.656796 -69.190870 -69.217999 -69.190225 -58.414756 -58.438972 -58.414559 -49.137730 -49.159138 -49.137669 -41.183035 -41.201841 -41.183016 -34.389454 -34.405890 -34.389449 -28.610760 -28.625054 -28.610758 -23.715075 -23.727450 -23.715074 -19.584147 -19.594811 -19.584147 -16.112541 -16.121689 -16.112541 -13.206778 -13.214591 -13.206778 -10.784439 -10.791081 -10.784439 -8.773249 -8.778870 -8.773249 -7.110170 -7.114906 -7.110170 -5.740514 -5.744486 -5.740514 -4.617080 -4.620397 -4.617080 -3.699345 -3.702102 -3.699345 -2.952690 -2.954972 -2.952690 -2.347694 -2.349575 -2.347694 -1.859480 -1.861022 -1.859480 -1.467111 -1.468371 -1.467111 -1.153060 -1.154085 -1.153060 -0.902723 -0.903553 -0.902723 -0.703992 -0.704661 -0.703992 -0.546876 -0.547412 -0.546876 -0.423172 -0.423601 -0.423172 -0.326179 -0.326520 -0.326179 -0.250447 -0.250717 -0.250447 -0.191568 -0.191781 -0.191568 -0.145993 -0.146161 -0.145993 -0.110884 -0.111015 -0.110884 -0.083980 -0.084083 -0.083980 -0.063496 -0.063577 -0.063496 -0.048036 -0.048099 -0.048036 -0.036517 -0.036567 -0.036517 -0.028120 -0.028160 -0.028120 -0.022240 -0.022273 -0.022240 -0.018458 -0.018487 -0.018458 -0.016514 -0.016542 -0.016514 -0.016300 -0.016328 -0.016300 -0.017847 -0.017877 -0.017847 -0.021336 -0.021372 -0.021336 -0.027109 -0.027154 -0.027109 -0.035693 -0.035749 -0.035693 -0.047827 -0.047900 -0.047827 -0.064514 -0.064608 -0.064514 -0.087070 -0.087192 -0.087070 -0.117201 -0.117357 -0.117201 -0.157085 -0.157285 -0.157085 -0.209479 -0.209735 -0.209479 -0.277845 -0.278170 -0.277845 -0.366498 -0.366909 -0.366498 -0.480784 -0.481301 -0.480784 -0.627277 -0.627924 -0.627277 -0.814022 -0.814826 -0.814022 -1.050797 -1.051792 -1.050797 -1.349422 -1.350646 -1.349422 -1.724102 -1.725600 -1.724102 -2.191810 -2.193634 -2.191810 -2.772714 -2.774922 -2.772714 -3.490641 -3.493302 -3.490641 -4.373588 -4.376778 -4.373588 -5.454267 -5.458072 -5.454267 -6.770686 -6.775202 -6.770686 -8.366765 -8.372098 -8.366765 -10.292975 -10.299243 -10.292975 -12.606995 -12.614326 -12.606995 -15.374373 -15.382905 -15.374373 -18.669186 -18.679069 -18.669186 -22.574679 -22.586072 -22.574679 -27.183869 -27.196941 -27.183869 -32.600091 -32.615019 -32.600091 -38.937474 -38.954440 -38.937474 -46.321311 -46.340502 -46.321311 -54.888309 -54.909915 -54.888309 -64.786691 -64.810901 -64.786690 -76.176111 -76.203109 -76.176111 -89.227372 -89.257335 -89.227371 -104.121895 -104.154986 -104.121891 -121.050929 -121.087293 -121.050915 -140.214463 -140.254215 -140.214416 -161.819819 -161.863020 -161.819665 -186.079914 -186.126508 -186.079414 -213.211227 -213.260846 -213.209598 -243.431635 -243.482985 -243.426338 -276.958762 -277.007623 -276.941533 -314.010941 -314.043656 -313.954911 -354.817843 -354.789862 -354.635653 -399.664879 -399.427911 -399.072457 -449.047038 -448.093965 -447.122341 -504.434985 -500.763611 -498.151183 -567.277567 -553.565849 -547.448302 -601.183295 -578.744849 -568.822387 12264.650624 12033.406884 10944.559739 14043.095744 14214.229305 12306.122696 11181.372966 10375.631474 8543.849299 6525.039857 7127.065635 5708.760255 4220.845531 5778.464093 1608.847975 -380.926646 -1152.692706 -1612.159172 -1934.893294 -2175.885231 -2357.989668 -2493.389411 -2589.901499 -2653.491294 -2689.372507 -2702.422417 -2697.215119 -2677.867420 -2647.845852 -2609.830414 -2565.676852 -2516.478042 -2462.700701 -2404.364109 -2341.228245 -2272.965359 -2199.298064 -2120.095930 -2035.430040 -1945.590214 -1851.072703 -1752.547345 -1650.812912 -1546.748172 -1441.264350 -1335.262377 -1229.595088 -1125.027966 -1022.174439 -921.320294 -821.931966 -718.994144 -628.562193 -590.047002 -573.448240 -567.302027 12066.351875 12057.769581 11329.641020 11752.418246 12179.855875 10812.237111 9864.485370 9286.303365 8485.904369 6554.317293 5432.574541 3844.278014 2837.198397 1928.521116 592.445430 -496.726352 -1169.712204 -1613.739544 -1934.289348 -2175.080877 -2357.268929 -2492.769677 -2589.370781 -2653.042524 -2689.002590 -2702.127570 -2696.988203 -2677.697639 -2647.719972 -2609.734579 -2565.598323 -2516.406462 -2462.628775 -2404.287725 -2341.146156 -2272.878600 -2199.209235 -2120.008488 -2035.347676 -1945.516364 -1851.010224 -1752.498346 -1650.778757 -1546.729709 -1441.262642 -1335.280885 -1229.646481 -1125.156135 -1022.526775 -922.396883 -825.388433 -732.774363 -653.171817 -606.853285 -584.262673 -575.671507 11882.084720 11832.561386 11644.165117 11435.855606 10871.030845 9823.763845 9133.954400 8455.965250 7396.431095 6015.719625 4640.563796 3369.796811 2259.017777 1233.237080 231.689665 -591.672459 -1189.551649 -1618.596181 -1936.053704 -2176.081387 -2358.017401 -2493.391649 -2589.900770 -2653.490580 -2689.372074 -2702.422194 -2697.215016 -2677.867376 -2647.845835 -2609.830407 -2565.676849 -2516.478041 -2462.700701 -2404.364109 -2341.228245 -2272.965359 -2199.298065 -2120.095931 -2035.430045 -1945.590229 -1851.072751 -1752.547500 -1650.813419 -1546.749826 -1441.269745 -1335.279979 -1229.652505 -1125.215254 -1022.785152 -923.315137 -828.369159 -741.466586 -669.516797 -620.455203 -593.153675 -582.077091 16582.066496 16375.614725 16102.699000 15874.490766 15448.027771 11277.948620 12476.353310 11422.943310 8216.761295 6629.809039 4993.261756 4546.178445 2633.373052 -2268.325722 -4314.673811 -4123.252140 -4220.713198 -4237.573016 -4128.592337 -3936.223895 -3707.216725 -3474.048000 -3258.158059 -3073.534341 -2927.813360 -2822.592182 -2754.539314 -2716.727555 16853.511984 16339.074153 14552.738020 19575.025936 17105.590954 14025.929758 14158.191348 14844.898687 16615.616991 14052.478677 13928.830159 11885.133887 16320.293859 14540.311441 13344.442557 16519.960426 14594.642832 15326.412955 12110.506535 14498.938081 17941.633862 15745.285071 16408.528336 16002.463208 9909.188230 11076.049801 3460.957417 5862.605246 17216.472795 16356.724516 13884.486527 12699.231212 14912.615785 12284.078055 12429.427842 10835.393416 13570.637710 14479.973584 14086.892056 12393.338550 13510.433584 12408.572636 14539.886789 18192.887242 13402.423312 13944.107733 14924.591964 10675.843002 11949.699616 14631.510881 14105.245454 13999.466387 16552.040349 12909.286260 15168.276021 12209.116288 17561.454725 17279.236893 16008.786401 12304.925603 17093.970677 11037.118718 11751.339098 17082.599196 11244.224700 11688.476274 2716.963668 9002.567961 11766.923662 10794.263429 12068.896808 13274.496545 11476.311448 12784.411247 13304.232556 10841.503930 12685.509028 7334.030236 4501.479748 14656.313429 13032.264698 9055.864686 14975.260314 7381.579956 17823.406891 17570.451240 17473.722559 14886.720204 9340.502985 18002.210967 11864.657033 5560.055828 17061.927464 4028.076829 9415.393950 15661.225244 15874.476332 12410.225261 6633.863023 7592.552310 15741.476150 9984.350645 10636.353839 10736.554074 1719.311168 14391.267390 12483.754207 6546.672259 4316.089024 2602.786883 3836.945628 6273.649889 18010.414101 17575.622621 17356.717383 14766.799536 14877.456276 17698.967784 13997.655854 13344.832708 11772.280126 9756.603128 8526.278750 9469.207958 11756.050021 9258.358800 9883.436090 14205.697782 11561.908449 9784.380556 12926.113235 11483.927797 6592.841028 13321.032552 13822.434372 12853.122509 9240.769132 6235.292006 5240.770059 6652.767130 18314.800858 17714.249360 16702.951187 12953.342830 11172.842515 16966.489351 7133.468560 7598.119676 12538.095294 11133.927701 10565.489090 11284.088063 14967.860255 15036.403160 14690.577891 11925.349150 8537.751569 15991.509823 11594.883444 8271.788704 2622.000056 12354.228705 11827.597786 12938.541456 5761.791759 10327.349276 7818.486387 4810.144891 18661.973393 17970.607521 15562.724253 13400.129387 14462.172915 11677.040943 13927.378183 14572.197167 14881.453857 13487.363015 12726.848308 18844.217788 5031.402071 4129.013561 16099.157238 14254.655732 9948.818498 9765.019644 7818.742451 7832.435937 16669.494556 10394.424734 4170.030890 2190.630155 7031.681023 5924.456903 2629.879627 7977.647023 18768.858330 17628.840154 15263.080403 14943.125391 17005.200902 14916.620132 14399.321604 13971.546723 13536.592541 4878.466787 11103.794734 11563.001994 9626.807976 12038.001206 11359.864816 5741.179882 9508.489586 3140.430944 7856.967183 5013.812335 9760.028283 9654.406214 2135.960728 7532.159043 5757.129820 5103.973682 6496.636783 2594.403612 18824.826416 17688.379625 15490.061567 17778.332602 11553.924662 12684.685781 15657.318476 9774.494269 6405.231427 13974.957724 3328.128888 7019.191505 4732.060809 8408.669559 4069.421352 8450.089675 6155.702346 5630.245592 13157.320935 6981.337574 10630.161065 10855.318186 8447.265172 8223.493151 9124.162423 8869.939051 4967.251186 2643.550618 18791.911202 19191.320162 18961.668188 17200.446326 14697.867717 15365.532265 13416.403011 15104.724226 11162.753896 13806.836867 10844.117100 15164.987231 8825.427093 8242.079387 14721.594491 5638.287913 4298.272158 8833.016614 10248.302849 7245.002493 9753.407558 2206.504448 5660.405093 5100.359263 8240.086288 6973.008415 2886.674363 1987.884919 18436.921704 19499.337139 18602.558011 18200.722873 10388.387570 17122.716050 14539.412778 12629.875500 7760.175035 10029.820256 8102.657820 8693.958866 12424.407091 10217.400279 7391.141912 15472.200278 15094.150024 6748.442370 2760.721318 5782.283892 3735.518577 5739.675130 9297.505776 7027.102623 8361.538630 9136.829768 3501.117683 6852.362668 18055.617717 18489.288246 17473.868558 12821.050194 15907.097562 10885.980169 13346.676616 9058.241890 10030.011148 8416.876187 8702.283158 6093.142533 7083.479814 4612.199392 7979.824304 8954.855285 6549.070001 1497.409359 7424.680741 13511.796482 10685.672010 12227.646971 5935.985595 7068.604363 8306.529336 10400.999611 3920.251366 6430.179055 17765.730403 16746.348298 15338.484682 17049.520834 17768.186223 6243.204635 18902.047598 21638.278953 3451.907660 15950.031751 17665.397796 4088.180915 3059.850714 3834.032154 3838.164190 4383.946681 5845.002541 4077.959543 12985.008290 8467.696387 16302.772229 2526.925689 13945.758345 9253.792264 6610.486733 11242.927561 3151.800238 2577.309676 17841.516582 16816.946112 15583.198341 14622.166045 16643.961848 21239.573797 9436.500100 12508.539341 5101.901437 18260.035029 13007.754955 4680.961201 6286.868799 4434.116493 3357.811208 1439.059774 4898.634792 4243.024971 4068.586227 2883.659863 3594.509065 5004.731335 1633.945489 2949.890249 922.482640 1702.750699 3411.496785 5084.476142 18082.349527 17144.639715 13855.744009 16382.300580 13690.509324 18336.040576 13601.346244 13467.799637 7267.843617 5000.472181 8571.780862 7987.870922 4589.512334 18463.880553 18300.462934 14831.339099 19220.106701 16580.447180 13591.120383 17228.482274 10974.124544 20957.182682 10258.746899 6692.309706 5867.529565 1465.824164 18867.753253 18124.226515 14696.044570 13958.506343 21227.537266 15864.933539 10396.406974 9324.736823 6335.301495 8284.101602 5179.669673 6572.218352 4048.628987 19075.160289 16572.711076 14078.561486 11674.370684 16300.460739 9152.538211 9117.394467 10473.623514 6906.197662 4709.183301 7741.706703 12177.511273 3324.867259 19235.639300 17471.697760 16775.563169 17326.114378 8010.694519 7681.183656 5361.288065 17134.839073 10689.211451 8932.082129 3488.638006 872.124348 1347.123836 19454.631042 19183.286175 18810.275644 17481.179242 14251.992348 9317.991058 14378.535477 9509.501913 14962.184208 2651.922343 9215.378288 4802.854945 2992.339389 19768.120571 19907.786576 18084.520985 21331.587309 17756.844022 17735.974545 15348.213150 9621.727005 6114.496364 20495.254953 6584.912388 8598.348086 4889.061741 19929.260751 20210.783198 18696.256211 14628.863826 12528.495318 13111.193946 10057.301208 1436.048243 8716.267414 3220.760617 3572.793006 1913.865716 2752.619809 19649.483749 19947.015352 20640.171634 23245.980461 17567.627765 13641.575126 9089.640628 10116.160770 18261.354553 4097.302801 6113.913614 3932.351851 3353.465186 19369.366121 19711.734518 20078.555866 9208.691626 22137.939029 14662.480967 15520.660659 13705.521955 9525.477380 3423.649409 9410.850274 7752.613866 5388.931021 19293.092809 19628.097386 18486.693057 15837.982420 19141.475040 14484.943743 18085.215992 6726.928094 2268.592601 6209.152298 10130.062971 12082.164504 5761.449787 19401.233124 20410.551404 20231.626846 12547.219713 20299.862760 19140.506001 7964.520208 9684.907850 9461.131549 16953.258758 5339.900130 8356.496408 4568.334880 19518.879147 20675.329870 21162.485739 19846.106373 14497.594357 18394.673163 15694.743687 14135.705593 11042.333861 9789.507850 16425.361849 5512.039334 4685.840955 19209.604732 19335.274660 20843.439807 11431.758163 10064.013904 14803.358705 7352.971759 3992.813976 9813.416943 14369.057429 8341.353985 5794.097475 4068.148822 18884.896258 16850.617598 15792.768923 9755.192863 17709.023740 17840.791833 6294.611587 19505.902045 5641.887368 7837.599699 3931.239608 9758.036232 4649.215989 19075.522102 14742.326168 11107.515080 18383.847977 15888.125843 17154.955287 16119.640669 13410.972591 14407.416950 4901.972864 6561.883309 12976.420168 3735.050844 19545.074969 17609.388765 14172.164247 14091.760391 10525.924702 12164.272752 2523.993476 15629.565577 7020.411861 13183.223873 6813.828284 3822.375512 3687.713560 19841.079731 19120.824507 17143.649330 19579.467064 19547.968251 15437.313993 7559.011671 19750.571849 15481.812051 10927.306806 7866.798382 7493.470952 5910.393262 20027.687476 18746.359199 14363.933552 20301.204827 10376.356721 16837.422513 15335.386983 6770.002458 8289.228689 7070.505079 9813.929420 8294.879018 6557.229319 20104.314440 19802.531202 16505.825836 14690.846169 14325.943581 12655.954861 7010.743232 15238.312271 6816.565173 19314.382732 6504.333405 4620.240032 2734.802135 19902.854605 19633.961809 18465.742401 18056.286129 20493.833227 11039.653449 11758.762140 12572.422466 12097.575864 3492.258548 7469.675410 8540.178633 4565.247177 19686.051157 19373.705993 18867.107898 15713.074063 15286.887081 19619.260183 14453.551768 12950.504920 9658.658924 8428.136487 10946.226635 7196.275694 6471.041820 19786.370405 21660.876778 22658.775773 19974.980101 20291.376489 16095.947078 16288.474369 14438.958392 10947.061041 12247.512296 4514.584807 4293.296708 6269.964052 20152.685482 19195.632180 15821.330555 13278.832916 20183.318824 18037.398755 15232.128601 15199.503198 16923.605682 15527.806902 10842.105466 6858.825514 5198.074485 20340.207939 17433.122184 14298.387821 19517.024546 21400.604233 17859.758782 11410.458066 15301.818026 15966.969089 3550.011291 5089.238997 9823.987369 6135.512806 20512.859040 20360.941989 18433.799671 18109.190515 21577.743009 6956.145081 18756.617847 11689.383478 12474.408688 3817.692414 10806.680309 6017.269999 13997.585412 20623.058329 21051.944204 19935.209109 10811.910624 20284.283348 16798.533835 9288.285653 9784.791746 10004.960586 5859.304913 9114.606227 2163.090778 5994.560515 20810.509238 20830.808298 19960.294051 16735.079711 12252.344083 8631.674075 10305.697264 10021.532416 12703.810110 6825.027287 2594.957462 10420.534365 7233.668283 21327.510902 22949.077813 21769.641935 17637.340484 19553.433392 15439.911384 7595.459553 15916.116839 13992.263048 9593.185277 8053.952881 2758.342875 3532.501434 21718.184117 23827.465472 21859.900555 20365.641718 21361.600788 14937.544263 15888.614523 16468.536571 15177.885176 13853.365571 7706.375813 6970.165031 2449.036667 21706.723261 21770.946063 17970.023639 20270.051404 13803.764127 18240.652874 15099.883129 11530.762558 7876.802787 6855.672714 9608.474712 5778.928862 8331.030976 21450.727034 20776.839349 16839.312158 19557.374166 19883.729714 12822.157066 18550.911361 7910.996862 6744.539749 12395.676661 6225.733249 10680.630011 3732.217337 21191.276095 21682.654862 21521.086048 17352.790715 17628.597152 12521.311017 5057.405836 9550.699512 4040.169646 5463.597674 9309.491201 9840.923463 3048.573867 20966.726738 21513.567814 21414.484129 22882.451348 17822.158953 14936.751057 14999.690086 14813.037262 14924.271967 11456.240929 7431.726521 3629.225957 1634.034320 20972.085260 20845.763563 22045.039780 21769.061684 20403.341847 18938.714284 12158.400121 13479.693323 9576.422670 4263.912431 5150.112138 8105.505742 8865.606362 21030.398685 21953.478005 22575.967160 16758.677522 10081.746258 17188.246241 20677.646934 10766.194943 10787.822382 6808.234833 7712.125019 7699.355200 3089.469869 20958.995117 21397.992687 24094.660648 21879.833323 18467.925852 16833.897634 9514.377438 8760.223566 9045.034131 13609.417155 5155.767787 3454.082605 5291.270185 21238.775264 21434.512558 23696.798635 17306.534511 19281.011028 13467.730462 15547.764942 11351.215705 9816.124219 12024.724751 10355.112815 10448.145617 9172.775087 21534.733272 22231.139467 20793.909544 18793.368150 15046.102306 17315.724832 15085.654193 14510.014370 14379.871059 5950.659210 12246.113355 7375.418711 5513.147414 21326.253721 21715.003751 18484.766265 19790.475517 19654.169240 18439.661355 14471.842314 13230.156390 5175.384049 12018.024068 6315.775277 10013.392758 3167.909316 20778.984650 22538.697927 22277.746822 16732.128575 17576.777792 13711.322012 14309.073209 11875.255041 9009.379250 13181.963028 10139.731326 12032.599726 2701.598470 20309.769767 20695.251453 20757.787107 20652.044277 19838.780491 17104.011105 16466.301674 10847.627479 13898.865717 7892.230206 8413.462141 4725.541637 2443.290675 20211.658077 20238.605977 20927.195704 19377.668746 21196.226150 18662.962683 14882.924121 18044.549283 13174.041098 8095.463904 8392.370174 15196.889737 5457.767927 20208.519803 19436.821572 18742.682823 20706.749015 15296.425271 7620.748306 17120.515053 15075.496355 12440.137257 8257.967828 9278.249946 5621.478777 2247.147752 20575.541682 18836.981307 18066.025766 20582.241954 21030.527976 15838.863146 11661.675407 17460.198574 14188.523475 5655.741709 9762.666058 7745.639489 523.469740 20598.770279 22468.095739 23737.064621 12657.554635 16587.511159 13613.595344 12607.547832 10164.899893 6370.817758 11491.591489 11941.722329 7765.533250 4111.096702 20406.951003 19507.098163 19783.088726 19608.019188 15896.357165 16714.078529 18398.856900 10811.488053 8012.275972 5214.738748 8898.090569 4456.910057 7933.120239 20364.076839 23110.137434 26507.946904 19703.146409 16011.310378 13985.201286 11871.452705 8272.440254 11166.364826 9757.058334 7380.901544 11065.171196 3675.687954 20001.750941 19362.036137 18411.885273 20349.255487 18764.200108 18014.302420 11161.000931 7461.806934 7114.270158 8878.042630 6058.234745 6630.026247 7510.941776 19927.222419 18987.605343 20773.044274 20050.032476 19106.099946 14242.641192 12782.389868 14575.847574 14729.382590 9426.780423 11499.916800 7697.729301 8374.949405 19775.050382 20949.212542 21287.308894 21455.977753 12966.437067 21230.093982 8628.194209 12544.122201 10586.863386 5464.193850 12234.226315 8784.896882 4837.499342 19819.760536 21159.904879 24351.447297 20929.610421 19123.060486 10193.458749 13483.709382 10944.667579 9588.111294 8023.898847 5484.420975 7666.879528 3301.499582 19793.451943 21649.363316 22003.462769 18800.830289 19383.099571 11019.332968 14972.009907 11804.617628 13604.741501 6626.050748 10339.219716 5799.001054 4005.347941 19759.688358 20502.952862 19000.462371 21198.190621 15747.896730 17042.904108 11342.396304 13504.513417 14914.383621 9113.065430 11934.955793 10543.021579 2789.115035 19656.425457 21368.086781 21952.322464 19466.630129 17907.920661 9727.623035 10828.556905 6686.521349 8641.120992 8588.304470 7965.245784 8852.064876 3636.652021 19385.774313 20072.873831 20797.099606 22923.553893 16714.591652 15447.947948 15255.482719 17580.162812 14656.538818 7409.049242 8069.224363 10592.330041 7937.328353 19029.584495 19729.695817 22835.985445 17062.119550 12779.395392 13082.487815 12180.418659 13390.259879 12097.402496 5857.349495 6358.756409 7608.713749 7232.734260 18589.849697 19864.147700 22580.273389 20589.011758 13100.620789 19305.040948 17950.168679 20437.059665 14083.602680 11851.201953 11623.446718 5319.760235 2330.930849 18394.261531 17404.169930 17529.554138 17700.479179 13667.350743 9425.811008 15316.713915 16054.587647 9961.468130 9597.504842 8336.630089 5036.156611 2382.314596 18317.421821 18683.263728 17825.970484 19619.616657 19401.361256 18644.300005 18197.051566 14192.503221 10677.623641 10282.428330 6425.383524 8410.513134 1981.788201 17841.965632 19212.298704 18911.286075 21695.561390 12609.045242 16105.053620 13002.221141 7901.433182 8303.612741 7624.303327 3159.649112 8492.091272 4168.927732 17522.634328 17098.178972 17727.345259 11698.622820 17028.813643 17579.449322 17001.635445 5907.925972 13245.495419 10796.826672 10147.605826 3233.979031 3191.476128 17571.830164 18910.054707 21592.990467 17249.812323 11668.658562 13311.404381 16006.335464 13071.276004 13194.630390 16259.620436 6340.813909 3257.571396 7241.656748 17331.662948 17297.430652 17824.650434 19254.420405 11832.646434 16829.691269 18879.573424 15192.971579 7769.445363 7125.891469 11325.529930 5833.747597 3627.857366 17155.121623 16877.673854 17575.241688 20975.237481 15286.922223 11981.486098 8155.499164 12719.556647 8103.962556 10088.271152 7369.123742 6947.621986 8857.681460 17025.641318 16973.697732 17928.018459 21356.617289 13740.729809 14666.186956 13149.783746 5867.773825 12241.066717 8751.478836 7456.873096 5541.266722 3630.023704 16765.217265 18127.039389 21621.322652 18072.910817 14159.616868 15399.408203 15449.067353 12059.422897 7683.198508 13829.488659 18436.909330 6790.893761 5588.989634 16337.248218 17299.247857 20031.729805 21804.185160 17451.188678 15476.195285 15178.499884 13820.251639 5429.484936 12222.578171 6248.572813 8235.880177 1998.138873 16356.249985 16363.612228 17476.713955 17515.829917 10969.525071 13506.706472 19190.438265 5114.513396 8935.837161 9605.390713 7111.930474 7197.990422 1796.424523 16688.443055 16060.878167 13509.485322 20853.855295 16489.514575 12866.462779 13099.085452 10343.010898 14736.858793 9308.039409 6623.773395 7116.163964 2733.450467 16747.443176 16916.667371 13775.237540 12153.849214 12379.683939 9461.924238 15834.919119 15878.430985 12871.144328 13357.559054 4841.936905 10079.736623 2104.114281 16367.050214 17967.329765 18495.826288 22671.784355 13165.674702 7738.967851 12553.840890 10114.531154 15622.732579 13546.218632 3441.674145 5623.860788 7492.120090 15919.524834 16813.922339 19155.184149 13384.717395 14158.512283 8148.629721 15415.783351 11464.300453 12385.406498 10862.189803 10626.841678 12773.190903 3311.671108 15803.774971 16485.714472 17510.928147 22178.462948 18728.109528 14809.717139 11333.961974 9296.813516 10006.705605 12998.067185 7833.336886 6410.385083 3265.684032 15652.798875 17867.486204 17789.227157 19585.283541 9975.519992 8385.040140 14612.321921 9332.244530 12849.926423 8116.158604 3969.444354 8011.695246 5325.516362 15245.279394 17374.942558 16277.733983 11008.351973 11720.425770 15395.383144 13940.189528 14178.446390 7304.006159 8809.475986 11349.347093 6521.025615 2906.301794 15215.944467 19088.841519 20773.148137 18598.743897 19178.992148 11119.056397 13770.276055 14301.324235 9087.188112 12280.050938 8249.927888 7643.035438 7036.895024 15476.342016 18451.306467 17875.334103 22819.231741 13509.022395 8033.851841 10008.353649 10649.818467 4142.880876 10348.368200 12864.162329 11212.230875 5925.171542 15621.228610 15535.193015 11934.750120 13773.930074 13573.200918 15191.960621 12455.267500 12316.343390 12690.605300 8951.052636 3749.940139 8246.439605 4950.937534 15451.914288 15397.963871 11694.055911 9281.279437 12059.266344 15505.291015 19660.143218 6370.795660 10161.615376 10502.195199 15292.133302 6278.501634 2432.951982 14830.165265 15057.312722 12839.101517 13615.864958 14981.941000 11711.877984 10259.668550 12909.599100 6714.580049 10894.650129 5300.884573 4408.941358 3390.226228 14190.679236 14750.436846 13927.172712 9077.541004 16057.834327 13405.379654 10878.172877 11324.019035 13949.832416 5794.498604 11220.514524 13674.858557 13238.456186 13564.701447 13713.048031 12344.951005 11682.829648 13145.178634 10925.108267 18278.326087 11055.796168 12349.348768 12685.730339 14222.220607 11399.306261 4551.962131 12879.358982 11272.336048 9868.983999 19543.550479 17767.322898 17871.830982 18317.904736 14597.250424 12659.803569 17744.949608 18677.912273 14607.504429 12525.277976 12459.202624 11119.455497 10712.956659 19643.840814 17794.046767 17135.189684 15663.994227 14211.943952 15354.940181 15291.285151 12995.593344 11472.189340 16451.984745 12264.650624 12033.406884 10944.559739 13091.335581 13798.696159 11442.531168 17961.989865 16922.164413 15993.037852 15879.990183 13174.424175 18068.856701 13966.260703
</DataArray>
<DataArray type="Float64" Name="Velocity" NumberOfComponents="3" format="ascii">