<VTKFile type="PolyData">
<PolyData>
<Piece NumberOfPoints="2177" NumberOfVerts="2177" NumberOfLines="0" NumberOfStrips="0" NumberOfPolys="0">
<PointData>
<DataArray type="Float64" Name="Pressure" format="ascii">
 13854.303054 13672.894153 13265.075442 12631.093994 11819.893956 10858.817829 9748.564207 8528.607425 7280.837960 6067.692966 4957.184403 3961.286211 2987.652400 1821.240776 340.756626 -1147.615721 -2242.755111 -2920.869555 -3339.691002 -3621.161563 -3823.322173 -3967.468007 -4060.073196 -4103.424194 -4099.629475 -4051.232653 -3960.056854 -3825.633934 -3647.689415 -3434.380670 -3201.495460 -2962.355100 -2725.506592 -2496.374763 -2278.383655 -2073.527021 -1882.716465 -1706.060826 -1543.112925 -1393.082954 -1255.011349 -1127.897228 -1010.783688 -902.805472 -803.207143 -711.340898 -626.653350 -548.671536 -477.004074 -411.394181 -351.923018 -299.506841 -256.483772 -225.571300 -207.098912 -199.177185 13985.101882 13827.446451 13449.606491 12866.081402 12148.108419 11218.230056 10021.050668 8731.595535 7482.446494 6197.196219 5035.650270 4072.610821 3235.231043 2154.110781 304.333296 -1593.200916 -2617.611013 -3122.496463 -3429.981957 -3658.614784 -3837.617974 -3972.025253 -4060.795116 -4103.082337 -4099.981722 -4054.303773 -3968.975620 -3842.790906 -3664.097040 -3442.077522 -3204.370121 -2963.391084 -2725.968298 -2496.676776 -2278.647626 -2073.781462 -1882.963064 -1706.295450 -1543.331841 -1393.284271 -1255.194919 -1128.064128 -1010.935634 -902.944270 -803.334078 -711.455600 -626.750633 -548.731410 -476.959807 -411.035045 -350.621671 -296.023292 -249.791654 -218.612903 -201.642535 -194.943785 14244.983949 14191.818129 14206.325447 13683.919896 13716.777845 12307.718343 10583.991555 8991.154272 7911.761902 6546.411923 5512.366269 4570.398878 3826.832277 3244.443530 292.540644 -2787.760277 -3269.271484 -3391.144336 -3540.163757 -3702.866442 -3854.504058 -3977.627014 -4061.979516 -4103.037501 -4100.770793 -4058.598175 -3982.635398 -3878.349427 -3704.518086 -3454.396676 -3207.693676 -2964.309875 -2726.121391 -2496.568171 -2278.444482 -2073.546146 -1882.722477 -1706.062715 -1543.113516 -1393.083134 -1255.011386 -1127.897177 -1010.783463 -902.804718 -803.204669 -711.332788 -626.626777 -548.584476 -476.718957 -410.459276 -348.886430 -289.023916 -233.948964 -205.120014 -192.305597 -187.888749 -201.831420 -188.624908 -183.082832 -172.432861 -167.721402 -164.982889 -144.145104 -143.011207 -141.943926 -121.539870 -121.236515 -120.862711 -102.372811 -102.310145 -102.165792 -85.964346 -85.969926 -85.901004 -71.909394 -71.932718 -71.890017 -59.905179 -59.931215 -59.899252 -49.694102 -49.718520 -49.692290 -41.047133 -41.068847 -41.046578 -33.758485 -33.777395 -33.758316 -27.643499 -27.659791 -27.643447 -22.537302 -22.551239 -22.537286 -18.293599 -18.305449 -18.293594 -14.783409 -14.793430 -14.783407 -11.893744 -11.902172 -11.893744 -9.526251 -9.533302 -9.526251 -7.595848 -7.601717 -7.595848 -6.029391 -6.034249 -6.029391 -4.764377 -4.768377 -4.764377 -3.747724 -3.751000 -3.747724 -2.934619 -2.937288 -2.934619 -2.287456 -2.289620 -2.287456 -1.774867 -1.776611 -1.774867 -1.370838 -1.372237 -1.370838 -1.053925 -1.055041 -1.053925 -0.806552 -0.807438 -0.806552 -0.614400 -0.615099 -0.614400 -0.465868 -0.466417 -0.465868 -0.351612 -0.352041 -0.351612 -0.264151 -0.264484 -0.264151 -0.197526 -0.197783 -0.197526 -0.147019 -0.147218 -0.147019 -0.108918 -0.109070 -0.108918 -0.080315 -0.080430 -0.080315 -0.058945 -0.059032 -0.058945 -0.043056 -0.043121 -0.043056 -0.031298 -0.031347 -0.031298 -0.022639 -0.022676 -0.022639 -0.016291 -0.016319 -0.016291 -0.011660 -0.011680 -0.011660 -0.008296 -0.008311 -0.008296 -0.005866 -0.005877 -0.005866 -0.004124 -0.004132 -0.004124 -0.002889 -0.002895 -0.002889 -0.002036 -0.002040 -0.002036 -0.001481 -0.001485 -0.001481 -0.001178 -0.001182 -0.001178 -0.001115 -0.001119 -0.001115 -0.001313 -0.001318 -0.001313 -0.001835 -0.001842 -0.001835 -0.002789 -0.002799 -0.002789 -0.004347 -0.004360 -0.004347 -0.006758 -0.006777 -0.006758 -0.010378 -0.010404 -0.010378 -0.015702 -0.015740 -0.015702 -0.023412 -0.023464 -0.023412 -0.034428 -0.034500 -0.034428 -0.049988 -0.050087 -0.049988 -0.071735 -0.071867 -0.071735 -0.101828 -0.102006 -0.101828 -0.143089 -0.143325 -0.143089 -0.199162 -0.199474 -0.199162 -0.274726 -0.275132 -0.274726 -0.375728 -0.376255 -0.375728 -0.509679 -0.510358 -0.509679 -0.685983 -0.686850 -0.685983 -0.916327 -0.917425 -0.916327 -1.215125 -1.216508 -1.215125 -1.600024 -1.601752 -1.600024 -2.092470 -2.094616 -2.092470 -2.718338 -2.720984 -2.718338 -3.508626 -3.511868 -3.508626 -4.500207 -4.504153 -4.500207 -5.736640 -5.741413 -5.736640 -7.269027 -7.274763 -7.269027 -9.156914 -9.163767 -9.156914 -11.469220 -11.477356 -11.469220 -14.285174 -14.294777 -14.285174 -17.695259 -17.706527 -17.695259 -21.802116 -21.815261 -21.802116 -26.721408 -26.736657 -26.721408 -32.582603 -32.600191 -32.582603 -39.529636 -39.549810 -39.529636 -47.721440 -47.744451 -47.721439 -57.332280 -57.358382 -57.332279 -68.551866 -68.581311 -68.551862 -81.585198 -81.618228 -81.585183 -96.652097 -96.688934 -96.652049 -113.986393 -114.027215 -113.986237 -133.834740 -133.879616 -133.834234 -156.455085 -156.503775 -156.453437 -182.114970 -182.166299 -182.109602 -211.090297 -211.140129 -211.072820 -243.666767 -243.701374 -243.609862 -280.151160 -280.125375 -279.965903 -320.917125 -320.680167 -320.314004 -366.563125 -365.598868 -364.601314 -418.683080 -414.963036 -412.270104 -479.056924 -465.132975 -458.800399 -512.259568 -489.313371 -479.099594 14540.495462 14079.832243 14080.519774 14306.983475 12430.634261 12761.684824 10665.622800 10495.326921 9979.205778 8511.167820 6075.001326 4776.772911 2731.126840 1585.065604 648.760689 -2557.735391 -3589.697924 -3890.899540 -3864.353048 -3696.358759 -3480.660851 -3263.414944 -3066.348520 -2899.328388 -2766.714767 -2669.959114 -2607.998388 -2576.855646 -2569.554678 -2576.829346 -2588.491795 -2594.994459 -2588.713323 -2564.669147 -2520.637237 -2456.773079 -2374.963873 -2278.114279 -2169.520117 -2052.410684 -1929.675050 -1803.744069 -1676.580517 -1549.729420 -1424.391144 -1301.493124 -1181.746785 -1065.679331 -953.617807 -845.542654 -740.607032 -633.402155 -540.280555 -500.878495 -483.881015 -477.495311 14364.158648 13968.103799 13801.846760 14375.723629 13562.019825 12466.986681 10096.245965 9759.518737 9245.681922 7388.955761 5721.996536 3816.221604 1915.559794 62.828481 -1455.183179 -2817.181733 -3610.107109 -3877.155225 -3852.063652 -3689.104604 -3476.980647 -3261.764866 -3065.774083 -2899.316305 -2766.992441 -2670.364569 -2608.416846 -2577.199846 -2569.765762 -2576.881208 -2588.390295 -2594.770102 -2588.410079 -2564.333113 -2520.307967 -2456.478842 -2374.720671 -2277.927546 -2169.387754 -2052.326269 -1929.630482 -1803.731355 -1676.592761 -1549.761334 -1424.439605 -1301.559011 -1181.841455 -1065.846539 -954.006716 -846.660731 -744.135681 -647.437102 -565.119839 -517.504650 -494.313579 -485.441134 14208.028846 13915.521972 13307.676530 12749.386990 12176.285309 11629.408035 10747.536915 9780.075776 8464.079194 6882.490569 5216.593410 3393.860957 1468.718318 -340.492001 -1857.517695 -2983.853804 -3634.140267 -3871.098888 -3843.530528 -3683.036223 -3473.166730 -3259.362131 -3064.173391 -2898.157596 -2766.080360 -2669.612358 -2607.807125 -2576.749411 -2569.495531 -2576.796536 -2588.473775 -2594.984713 -2588.708155 -2564.666471 -2520.635887 -2456.772417 -2374.963558 -2278.114136 -2169.520057 -2052.410671 -1929.675086 -1803.744221 -1676.581024 -1549.731082 -1424.396573 -1301.510861 -1181.804725 -1065.868582 -954.235720 -847.563617 -747.135733 -656.239861 -581.617808 -531.017900 -502.937060 -491.531102 14452.155221 14797.722467 15432.012468 13682.269972 14186.875460 12787.085186 11351.645313 9308.869686 7878.210542 6602.768394 6145.533716 5772.267986 5144.368519 4184.738044 347.888891 -3545.420240 -3599.068808 -3474.502842 -3571.692671 -3715.363253 -3859.530699 -3979.651818 -4062.840280 -4103.559810 -4101.491246 -4060.303556 -3987.927452 -3897.639320 15046.316400 16304.878713 17009.382410 14743.659127 18774.711382 14894.422928 16194.852876 19086.940961 14221.266885 18054.475849 17368.926609 13185.014708 11960.609623 10632.447122 17478.187104 15480.447744 14084.903339 18211.443224 15960.513653 17749.110053 24145.660532 16847.700897 17277.141414 16068.519844 6602.159484 11434.669950 3850.239001 2758.121246 15641.470508 16038.403312 15273.101262 13721.627035 13850.100078 19150.049333 17189.776016 15298.946515 16062.525931 13112.497604 12289.001129 14303.631179 15297.656396 14002.782006 16084.615666 15800.551968 5991.475159 11259.412281 16189.048706 10997.568635 13117.119484 15018.215251 15068.680347 13088.902387 18091.243666 11462.268589 9845.951838 13377.248651 15797.744430 15491.762744 16807.358061 11702.062350 18459.928870 10778.043406 14495.759936 12550.318490 18077.568743 10044.073525 2602.776687 8555.661880 16654.672534 11679.635782 13385.148032 12425.435688 11198.923787 11107.354903 11042.279699 12668.211002 12261.423072 6922.498003 8328.326184 9896.096411 12690.657996 7292.065495 15581.634799 6818.241505 15711.994523 15840.249952 18427.639437 20369.606104 8293.375516 14101.142075 12350.834545 5181.283917 17136.119283 7980.960524 9791.865524 15380.754351 13008.255594 16235.082254 4655.501672 11691.637836 13231.046947 13309.005877 7804.564099 13656.905337 5623.834808 10095.636044 13664.371825 5901.596909 2079.354787 4537.129396 1106.431716 7299.251492 15969.699804 18068.348960 19982.323724 12689.629445 16489.497646 15114.237580 19274.140594 15548.895542 15907.107368 8679.122764 7521.259286 13385.368499 11117.240102 6770.322249 6948.484449 15362.572369 11627.094548 7769.290781 14311.377135 11403.212373 7264.773680 12022.345438 13694.397201 14307.100693 11428.167851 6892.684031 3472.317495 4627.386094 16430.650280 18332.579674 18870.930583 18808.586914 12561.335574 11408.662581 6044.281354 5968.486443 12059.980441 10764.686290 9451.493884 13386.452348 17852.957635 16173.851831 16815.267240 9419.653562 6217.949798 11936.844322 9709.719314 11545.114337 1471.045466 13834.149833 14336.444875 12059.253560 5692.155593 9178.997540 6298.577942 3102.696163 16799.054929 17690.551805 16992.604447 18759.586836 16266.355353 14943.289146 16075.005512 13615.554886 14099.688315 15622.263850 14052.053835 14879.310561 5594.526694 7653.140725 13205.500655 13452.042695 8832.112195 9876.728846 4976.351841 6642.002627 12150.485179 14233.461452 3456.051392 -180.421261 8721.750323 4833.342216 4255.060597 -181.459668 17008.071616 17909.772303 17565.354641 18549.805957 20848.011420 17895.657306 15013.503380 19997.346514 13852.438361 5275.676319 10188.466983 12864.162233 12424.166888 18055.482208 9722.647240 6127.546696 8198.546218 4676.681462 9349.913661 1332.073114 8222.731331 9812.665972 4285.702144 6711.852385 6230.671453 5760.619216 5383.354443 169.477891 17014.411011 17234.840787 15723.701913 17877.066871 20397.417812 17946.646580 13133.084062 12088.157081 4930.387002 13421.425584 5452.943271 8016.414180 5701.238657 9533.879519 2298.549227 11316.164893 10244.990249 6624.618116 12303.077395 8460.232166 13417.061410 12365.596378 9997.779061 3815.810446 12422.227601 8028.323244 3224.538472 2338.347410 17098.958264 16617.597948 16050.937008 13630.248725 16713.153072 14725.756585 12479.955712 17821.996230 11198.262446 17766.237229 9471.180240 15999.985322 7569.129216 10689.839384 14173.476603 5022.690005 4553.515590 5312.609146 12752.171681 8352.494699 8398.453527 7447.466826 4469.175352 5014.948789 7243.561768 2157.764326 4641.289034 3926.272467 17347.709724 18399.529826 19979.198416 19549.380824 12811.120727 17892.430936 17088.087674 12123.484461 5131.273933 9112.639741 3767.869597 10530.874932 10486.740404 11486.586430 10058.989834 15480.389078 16510.441297 11260.446930 5890.558860 3802.970300 3694.534642 5053.591474 8740.929800 8595.816393 5631.651056 6431.441096 4350.643186 2865.874326 17604.105217 18790.086015 20641.508543 15651.769199 14190.306026 14680.148406 14948.985874 8508.398345 11565.222349 10512.385912 12894.669684 7023.187418 10941.723545 4842.818018 11168.064388 10042.222667 6669.180476 2883.938183 12191.056126 13183.988467 11831.741500 8968.597050 8277.821002 7724.854833 11222.830234 14070.168819 4377.022159 4545.808967 17817.983363 17682.843356 18503.631453 17316.290618 20204.069259 6306.257753 17317.488824 17414.959732 6547.648960 18097.937507 15893.920875 788.484047 9398.753416 9465.455301 7035.971376 1276.028408 5016.033331 3154.128304 16772.498322 8793.503225 13416.975123 6706.656659 14038.283708 6367.354430 8520.712949 14115.028862 3421.123863 5886.107197 17967.360230 18336.197422 19227.824469 12433.991318 19560.446319 19901.124888 14850.831300 15119.785216 6294.069653 15503.539980 12396.010376 8854.987990 4713.811396 2877.412756 7573.923732 4945.897204 2248.620469 2310.334342 2460.025528 4311.367618 3755.014810 4546.878074 3927.433234 2136.719600 3022.271360 2912.856482 3380.518470 3642.948375 17967.648476 20273.078056 23071.303282 24180.775096 17045.456303 19005.656687 15124.469294 14305.846082 9451.261577 9847.458284 11008.979849 7653.117955 6005.661208 17805.022662 19141.995735 20377.378512 16210.994369 23452.319597 15330.881177 15257.984026 12158.153137 15807.874188 10730.653193 6186.707180 3670.359500 4068.134736 17737.938784 17977.264591 17194.000655 14867.905069 17501.883652 14975.500979 10058.698224 12003.791632 5860.054115 8987.671769 6120.485706 3026.080568 497.649154 17656.093001 17262.586072 18026.934522 14296.107777 20171.806015 9882.115098 8580.759348 11893.835211 3449.686968 5708.526284 9723.660433 13772.893827 3103.048543 17518.629803 16644.719622 20805.415652 17955.817674 7907.193866 9212.245241 8364.276394 17280.988811 13647.909919 9646.127843 4149.552226 5785.936193 1851.208102 17909.076877 18203.541539 21253.787542 21602.888238 15109.664347 13359.638396 16337.615083 9722.988785 11631.475077 2213.153160 7798.028977 3959.806881 3552.189902 18763.911475 20388.052798 21883.204207 19395.465595 21631.272383 18351.770872 15579.428299 11641.430128 6289.290100 15355.348628 4345.470727 10782.552516 3088.487696 19009.459411 18783.679044 17651.066116 17716.011181 19770.990095 16763.202208 16012.763778 3081.547015 9862.792572 5089.963611 6393.412449 4677.187531 3533.857443 18750.793108 19847.133350 20463.820252 21971.908971 22099.978128 18183.785606 15618.528755 12148.072994 16967.004330 7407.952307 7233.047934 2395.444671 2679.133884 18576.447096 19784.429295 20284.701064 11317.690135 18143.264314 17097.102122 12687.161389 15901.892452 10635.217035 6961.283617 11213.856776 5836.358304 4443.444437 18753.797527 20687.506284 22068.344490 20856.604327 16319.621809 15389.598117 16871.485313 6788.385464 5236.863883 6201.584109 12908.457040 11480.013420 4275.533448 18973.504751 20552.962325 21521.144427 16340.738742 15854.900339 16601.724163 8585.415215 16888.105866 10107.239837 13038.816243 1387.074217 7198.596892 2139.352333 18712.283221 19764.721852 21640.169813 20344.429086 19651.688128 18516.104238 15136.035757 11460.851025 14517.524273 10398.930863 18999.225920 10039.897647 1316.282882 18756.884469 22937.840360 25544.324491 19180.455705 13995.614276 16140.647078 11830.383079 2682.248216 12392.385669 16681.461880 9652.260258 5262.301415 3378.449693 19268.068398 20800.155550 21856.876534 14336.013550 18664.251902 19036.140075 11542.446947 19199.552071 6932.552834 8447.857295 7588.494208 9034.068417 4743.570569 19461.521537 18865.570040 20833.048783 19446.142181 16023.628258 19267.003599 16467.772619 15573.151170 15143.770820 10371.132781 5469.191391 8007.189072 3367.882011 19089.503963 17153.443230 21285.324912 17039.995574 14068.191177 10152.225292 7144.635643 19981.773860 10468.631702 17145.171658 6849.124788 8799.299023 2772.439566 18785.768452 18389.544974 24511.686921 21618.982330 16358.961711 17420.471247 8693.325494 19293.085296 16279.105902 9995.242769 9863.066774 8467.477232 7860.781078 18994.836652 20355.677105 23954.732364 21432.778322 13268.022747 18969.396730 15106.446263 10564.220041 10802.212886 9070.441012 12010.893654 8900.378677 1568.201719 19178.058800 20498.583759 23356.764576 21518.776874 20405.709106 12103.577842 8189.314958 11835.250279 7348.685947 17036.050824 8732.762482 4272.974863 4526.299664 19221.509752 21554.060175 23562.943319 24777.290093 21062.921772 12930.579389 11898.850835 13302.741907 13107.558644 4447.056298 8457.263383 6321.312423 2558.111068 19104.398006 17744.899375 19022.437888 21558.618559 19267.160665 22206.526188 13175.399197 18135.278741 8775.486296 6995.342758 8538.823530 6798.259387 5669.077173 19540.507562 21467.178217 22695.424943 21578.032356 21478.795297 18381.532780 16956.106625 13021.183645 9266.423379 10518.911503 6764.716741 4112.745655 4127.487820 20510.912249 23677.681559 26498.801004 21011.666735 20835.243582 18178.970713 13737.846414 17867.040127 16428.167942 13461.548107 8200.905382 6314.253485 5170.690451 21137.054841 22539.781178 23694.631644 19951.532566 19345.235347 22253.211530 11857.911977 17076.548374 16732.788417 2727.456492 7121.080835 8175.271916 4312.182214 21386.384220 21158.563914 23084.619220 19910.404066 21459.018220 8164.859427 18139.907650 14058.499414 13709.814605 4539.807715 8827.336438 7189.290322 11181.048936 21348.960545 20293.657643 21179.448082 15212.043024 15532.340374 16945.729364 7189.618932 11228.183690 6666.653675 8201.400950 7955.372293 5292.047295 6704.895826 21457.694604 21510.405567 19728.116901 17329.558070 11894.225762 10149.294532 10908.535631 9519.795421 10558.149197 7333.454977 5423.783843 8065.110462 3129.839729 21577.893042 21540.419279 20023.888263 17004.951149 18933.892668 15658.366670 8549.725742 15690.156454 10779.161289 10969.374368 6730.192715 3627.193826 3202.380611 21488.676958 21060.263576 20126.918937 21777.677626 17379.947353 18739.464696 17415.992272 16136.817683 16221.926132 10152.940533 7937.696081 4094.084755 3437.400520 21540.846012 21715.541002 19817.219940 17440.799558 11410.813396 15261.639004 13470.755382 11501.360013 8071.607263 5259.749486 6766.632976 5563.114774 5292.111269 21738.069488 22708.640798 22044.674904 21173.594107 18368.234276 12479.022600 14315.771850 8723.134155 5322.025355 9960.305139 5350.664240 8271.122854 4044.452531 21663.305913 21132.426590 21287.416558 16342.529507 17852.448961 12256.126046 5773.851766 3383.989588 2014.592470 6221.821246 8660.475842 8456.631878 1588.736010 21447.801054 21025.354788 19641.792906 20927.149482 19970.041293 15500.942860 11939.491918 13445.938688 12369.046303 9760.331388 6032.766197 3280.101243 2880.137767 21515.511572 21373.607090 19750.798899 15813.180154 19269.702866 16786.118465 12105.498378 10919.563616 5633.644186 3210.193388 6984.014423 8447.254074 4748.730938 21665.673156 22379.057280 22831.838504 15919.361133 10611.160870 18293.741688 16144.792870 9207.113012 7375.509132 9126.945156 9559.254508 7362.562633 2168.345393 21606.169582 21601.316467 20404.516147 20207.426316 14776.407125 17306.866729 10551.506506 7048.185301 6054.162669 10831.872112 5926.230697 5850.484830 3862.103217 21609.757424 21564.005972 20552.886115 16266.240212 15401.076330 10914.306263 14830.967242 9131.731875 6309.614007 12001.639780 8121.252510 6201.138444 4560.468181 21864.230869 22326.256598 19736.529214 18172.328060 15074.186307 17514.458121 10882.420673 13021.889622 14454.029551 7549.849616 6908.296033 7155.542923 3791.974043 22161.325864 22020.195315 20238.132097 20083.166836 17237.301984 19247.239734 13309.742835 13245.205894 5325.282046 9805.615417 3022.935628 8223.501182 5082.402878 22221.369956 21893.758526 19244.471153 14472.216681 14553.066436 15838.089828 14109.908283 11022.844804 7974.687196 9753.853587 4621.249586 10144.553715 3407.135259 22034.169612 21667.968555 20612.219494 18793.403412 17869.665217 14691.150556 12197.089444 10006.205021 12969.819063 10423.615001 5416.879092 4790.413083 3114.504961 21537.364755 21324.522987 22314.587936 17862.320155 19070.628311 18154.780627 14746.943314 11018.208633 9546.556203 5757.131780 6029.454237 13395.988335 -86.322120 21070.755100 20337.874568 22421.666293 19359.307438 15637.417011 6627.695139 14878.959272 10724.716236 8884.414840 7669.366201 8644.901811 1000.573229 3795.765303 20766.341998 20252.810565 19133.881542 19532.405207 19118.861079 17699.170064 8969.965372 11016.584039 10936.261097 4917.102986 8765.703256 9119.263531 3193.434482 20749.131685 22318.643459 22925.230607 13856.369606 15382.796840 14609.515416 10338.678805 6674.636334 4737.960636 11594.308704 9481.128729 5037.467321 4261.361777 20835.338772 21516.028385 20580.597082 17391.994857 14655.745622 15220.182495 12986.457348 10636.839674 7888.674729 3708.967232 7003.869217 4837.565468 8553.308417 20803.077546 20796.955849 19419.707593 18033.893210 13256.818845 17154.252362 9999.199314 6674.884556 6511.400943 9479.003152 5616.968121 11409.247660 574.434476 20828.684467 20477.552049 19498.449514 20233.818734 13621.849147 14417.624358 12290.426810 6257.096798 5214.734234 8185.096635 4010.221415 3596.441103 2508.087551 20766.428377 19533.445450 17380.921284 19907.899194 14861.506310 9759.016958 9797.525020 10404.123293 10013.845557 9016.297884 11025.085892 4924.203750 3759.531460 20701.291353 19802.341341 15457.980697 17346.661138 13050.914019 18036.562782 8625.447842 12626.201707 8996.293898 2043.577203 8507.336174 8914.427783 4916.322150 20497.195593 19042.920793 16490.578256 17011.490754 18494.753875 11634.654328 12969.219095 11365.845262 11400.228544 11003.200865 7732.648006 6058.070018 3683.251782 20173.167620 19340.432479 18954.296654 13447.990056 18432.195526 4291.330483 10103.253414 10397.903347 11531.442187 4849.641612 5642.392680 4407.912446 4662.725325 20018.732296 20123.494291 21110.224196 17817.197009 15901.810609 13050.946728 6724.765241 10618.069622 10153.550935 8733.718535 8493.524215 10718.193534 2686.406439 19980.239260 20346.788739 19873.798881 22736.024417 16369.168016 10937.633460 11202.031028 11809.305373 9360.029827 6383.966221 4690.943957 6071.959142 2339.786502 19842.183141 18909.444957 17782.915362 18050.431990 12571.868202 11150.974849 15697.613504 13898.743078 12230.061927 10714.905808 9078.290273 2521.816209 1888.800597 19332.544245 18020.507013 18554.832150 10461.437448 9843.681430 9528.876968 10937.467197 10847.106515 8720.729684 7762.559837 3569.028411 6741.516036 4318.088392 18778.705446 17769.004341 19241.688503 19386.234952 10197.679741 14396.370515 13519.337141 12900.527240 14812.018777 9574.630787 11255.689866 6059.155702 1464.278413 18620.774674 16682.640606 15966.959978 11159.264090 10459.325494 6717.814899 12668.977801 16322.603165 11513.947225 10709.771459 4303.305584 2407.917565 277.367549 18775.970431 17931.451013 15678.241931 12750.468522 12196.283701 14948.613994 16162.762348 10146.350036 8366.427979 11680.116783 6678.548875 7776.981242 4819.266185 19177.248053 17860.638169 13342.450261 13005.105545 10764.279932 13912.240036 12200.090472 3209.846983 9853.439327 7979.983692 478.037260 9027.929347 1226.575020 19187.502314 16578.751801 13513.135201 10439.398583 13747.765061 14914.521781 12796.065460 3813.404332 12940.149150 10629.123373 7452.119449 3737.273343 5170.019198 18698.415840 18453.207471 19462.983991 15061.125503 9499.990180 10738.720969 15387.450809 10586.748529 13421.817204 15503.483867 2299.813400 3478.985958 7151.081667 18612.887826 18000.201691 19555.004434 13017.171235 10984.696635 14523.446753 14869.031036 11210.147700 9451.584770 4555.709378 10533.141651 -219.339201 3160.151705 18619.069536 16930.309547 14163.148183 18151.108737 10796.436397 11155.369239 8473.438246 8793.314078 7593.666566 9408.860080 6488.891499 4755.219658 6988.341222 18054.375641 18894.900542 19131.850650 15877.443967 12449.826483 15675.989508 8940.810902 6823.802422 10178.625707 7630.815033 6844.126689 4291.188078 4723.468558 17525.790721 20570.038117 23335.469175 15108.425845 16074.137490 10854.070485 15218.640083 11074.811394 6939.830687 13967.663056 10106.282162 2554.874466 1723.619840 17551.396682 19554.939465 17577.397335 15741.527073 13549.745087 10098.296564 14697.170297 9380.682511 7440.392214 12754.162256 5614.014103 6831.335456 118.751689 17625.043901 18345.506013 14394.628222 9245.806751 10279.432295 16071.759003 11560.839223 2298.703231 13260.691747 8214.505951 9605.577626 6628.691213 1543.067832 17255.937278 15249.066322 10956.894996 13277.390709 11927.322866 14819.133110 9894.323368 11951.011153 20378.653550 9357.299980 5055.538338 7262.820793 3137.900589 16817.318349 14040.776951 11963.908938 8652.279296 10562.853548 12863.033380 16022.945326 12739.101021 10649.653553 10294.362786 4703.545760 8294.695565 3238.776075 16912.381817 15676.821938 17092.523463 17707.563751 10580.738828 7932.616959 14664.174076 10413.586148 14110.074214 11325.216104 7419.403451 4233.682402 8519.747765 17424.938980 15225.006501 12378.724746 16185.344820 11208.803902 12816.249060 13125.441614 10892.441895 8066.110154 10105.693337 13413.590039 11661.917985 2509.226940 17669.785263 14979.521638 8929.959249 19332.990898 14996.325825 16547.931090 12879.555581 11814.958360 11782.503741 10758.325851 7104.124642 4358.184061 1616.344399 17615.443150 17095.799714 14697.133249 11055.723201 11477.519229 9749.422857 15896.065169 10671.867501 12833.554044 5540.903107 4993.887345 6482.683936 4204.692935 17453.747867 17007.112306 15814.706714 14275.332853 13080.084876 14716.736574 11891.529215 12648.070092 6532.852057 9843.882932 10149.639042 3951.296943 1820.548483 17389.557042 16596.497646 13593.166901 14629.079726 13716.756631 11302.795226 13057.814607 12916.335231 8191.107494 13183.767117 7814.777634 5612.424539 4771.516841 17196.423059 16654.500120 13623.096333 14446.315297 12908.730453 7586.818385 12511.566686 7616.181915 2547.128648 10071.835271 12092.520269 15798.300432 2773.843022 16861.619642 16426.627937 14521.590398 17742.350070 14457.618939 14209.198273 10973.400423 12725.357265 11277.943439 5625.275119 3059.811172 6105.353852 1890.581414 16569.787198 15402.838939 14370.077924 6965.849837 13409.731310 16149.496230 14706.034837 7423.441954 9976.805013 11374.242455 13866.390220 4841.102982 2313.854191 16438.733016 15923.369715 14681.207777 8913.835257 9512.487908 11876.150079 11232.102690 12897.479705 9333.369836 10964.443669 4710.586869 4630.490237 3918.747815 16288.856350 15253.195960 11463.615836 11729.034815 11854.790269 13336.295214 17713.179323 10381.491134 13167.780683 4456.235059 11088.825685 13808.685556 11291.632606 16113.997790 14442.654143 11613.384932 11338.591153 15506.365153 10868.466677 11626.091702 13772.291481 10521.186942 10988.452369 13386.847061 12606.719405 5236.093055 15651.728011 15106.773228 14616.224927 11113.403839 16965.185861 16620.259680 14286.879508 14522.069556 14982.374508 16158.128800 14025.773808 13535.513074 12757.077757 14932.190877 14696.733653 14579.960800 15666.104185 14736.815099 12734.388788 12260.884851 14665.781896 15038.725731 14753.283858 14425.189494 12033.441378 13213.738666 14540.495462 14079.832243 14080.519774 13100.603784 12575.651364 12293.119205 11802.884826 15103.639160 12930.340840 16056.206186 12989.964762 17651.031105 12276.551739
</DataArray>
<DataArray type="Float64" Name="Velocity" NumberOfComponents="3" format="ascii">