<VTKFile type="PolyData">
<PolyData>
<Piece NumberOfPoints="8632" NumberOfVerts="8632" NumberOfLines="0" NumberOfStrips="0" NumberOfPolys="0">
<PointData>
<DataArray type="Float64" Name="Pressure" format="ascii">
 7139.260323 7139.260323 7139.260323 7175.987763 7582.093859 8603.404941 9578.230748 10406.887735 11030.112181 11430.461471 11628.574518 11674.370042 11603.968691 11430.374130 11179.656820 10877.829642 10542.875176 10184.286070 9808.284312 9422.333328 9036.186382 8655.925667 8281.100517 7908.139984 7536.109731 7168.360822 6808.574538 6456.882113 6110.190851 5765.462170 5422.402200 5083.639574 4752.730846 4431.904759 4121.025446 3818.164754 3521.146261 3228.414034 2939.188076 2656.919023 2388.641324 2130.466760 1878.874911 1650.432248 1451.293780 1255.749324 1012.474699 765.100770 565.151173 373.368461 109.060545 -123.469025 -306.369333 -535.955830 -750.849376 -854.767613 -849.923177 -777.748141 -672.510623 -556.152698 -442.248635 -339.162605 -251.400662 -180.473794 -125.726038 -85.167013 -56.206238 -36.200158 -22.786081 -14.032397 -8.460759 -4.996502 -2.890284 -1.637475 -0.908333 -0.493164 -0.261962 -0.136086 -0.069112 -0.034302 -0.016634 -0.007879 -0.003645 -0.001646 -0.000726 -0.000313 -0.000131 -0.000054 -0.000022 -0.000008 -0.000003 -0.000001 -0.000000 -0.000000 -0.000000 -0.000000 -0.000000 -0.000000 -0.000000 -0.000000 -0.000000 -0.000000 -0.000000 -0.000000 -0.000000 -0.000000 -0.000000 -0.000000 -0.000000 -0.000000 -0.000000 7139.260323 7139.260323 7139.260323 7175.987763 7582.093859 8603.404941 9578.230748 10406.887735 11030.112181 11430.461471 11628.574518 11674.370042 11603.968691 11430.374130 11179.656820 10877.829642 10542.875176 10184.286070 9808.284312 9422.333328 9036.186382 8655.925667 8281.100517 7908.139984 7536.109731 7168.360822 6808.574538 6456.882113 6110.190851 5765.462170 5422.402200 5083.639574 4752.730846 4431.904759 4121.025446 3818.164754 3521.146261 3228.414034 2939.188076 2656.919023 2388.641324 2130.466760 1878.874911 1650.432248 1451.293780 1255.749324 1012.474699 765.100770 565.151173 373.368461 109.060545 -123.469025 -306.369333 -535.955830 -750.849376 -854.767613 -849.923177 -777.748141 -672.510623 -556.152698 -442.248635 -339.162605 -251.400662 -180.473794 -125.726038 -85.167013 -56.206238 -36.200158 -22.786081 -14.032397 -8.460759 -4.996502 -2.890284 -1.637475 -0.908333 -0.493164 -0.261962 -0.136086 -0.069112 -0.034302 -0.016634 -0.007879 -0.003645 -0.001646 -0.000726 -0.000313 -0.000131 -0.000054 -0.000022 -0.000008 -0.000003 -0.000001 -0.000000 -0.000000 -0.000000 -0.000000 -0.000000 -0.000000 -0.000000 -0.000000 -0.000000 -0.000000 -0.000000 -0.000000 -0.000000 -0.000000 -0.000000 -0.000000 -0.000000 -0.000000 -0.000000 7139.260323 7139.260323 7139.260323 7175.987763 7582.093859 8603.404941 9578.230748 10406.887735 11030.112181 11430.461471 11628.574518 11674.370042 11603.968691 11430.374130 11179.656820 10877.829642 10542.875176 10184.286070 9808.284312 9422.333328 9036.186382 8655.925667 8281.100517 7908.139984 7536.109731 7168.360822 6808.574538 6456.882113 6110.190851 5765.462170 5422.402200 5083.639574 4752.730846 4431.904759 4121.025446 3818.164754 3521.146261 3228.414034 2939.188076 2656.919023 2388.641324 2130.466760 1878.874911 1650.432248 1451.293780 1255.749324 1012.474699 765.100770 565.151173 373.368461 109.060545 -123.469025 -306.369333 -535.955830 -750.849376 -854.767613 -849.923177 -777.748141 -672.510623 -556.152698 -442.248635 -339.162605 -251.400662 -180.473794 -125.726038 -85.167013 -56.206238 -36.200158 -22.786081 -14.032397 -8.460759 -4.996502 -2.890284 -1.637475 -0.908333 -0.493164 -0.261962 -0.136086 -0.069112 -0.034302 -0.016634 -0.007879 -0.003645 -0.001646 -0.000726 -0.000313 -0.000131 -0.000054 -0.000022 -0.000008 -0.000003 -0.000001 -0.000000 -0.000000 -0.000000 -0.000000 -0.000000 -0.000000 -0.000000 -0.000000 -0.000000 -0.000000 -0.000000 -0.000000 -0.000000 -0.000000 -0.000000 -0.000000 -0.000000 -0.000000 -0.000000 7234.205848 7234.205848 7234.205848 7267.524969 7654.296364 8645.836355 9597.358515 10404.191120 11012.926187 11392.886808 11569.539656 11612.491297 11554.066615 11383.424800 11143.634781 10856.211155 10534.779681 10182.324975 9804.268966 9412.394013 9023.198098 8642.290453 8266.004644 7887.832081 7508.968354 7136.676794 6775.825949 6424.003289 6074.922613 5725.142280 5376.622793 5034.887748 4704.548197 4386.638206 4078.679330 3776.769114 3478.358766 3183.093536 2890.181253 2604.087977 2339.254000 2085.399585 1830.262895 1608.486739 1425.024177 1257.447026 988.640132 716.914302 523.863547 378.558028 70.101240 -161.010433 -296.538210 -547.572899 -793.639266 -892.320999 -871.067104 -787.676591 -676.718681 -557.831388 -442.821776 -339.255526 -251.295740 -180.303254 -125.551937 -85.016113 -56.086900 -36.111514 -22.723293 -13.989596 -8.432510 -4.978377 -2.878951 -1.630559 -0.904211 -0.490764 -0.260597 -0.135328 -0.068701 -0.034085 -0.016522 -0.007823 -0.003617 -0.001633 -0.000720 -0.000310 -0.000130 -0.000053 -0.000021 -0.000008 -0.000003 -0.000001 -0.000000 -0.000000 -0.000000 -0.000000 -0.000000 -0.000000 -0.000000 -0.000000 -0.000000 0.000000 -0.000000 -0.000000 -0.000000 -0.000000 -0.000000 -0.000000 -0.000000 -0.000000 -0.000000 8285.578043 8285.578043 8285.578043 8300.585208 8478.146336 8896.237691 9513.333032 10105.064167 10740.277692 10940.347329 10817.186053 10885.225412 11001.221533 10785.626271 10670.527820 10546.692817 10369.526791 10046.734507 9610.951428 9158.673436 8780.450327 8438.035441 8055.513073 7602.295964 7138.126668 6727.049119 6359.651639 5988.718817 5588.808469 5180.337365 4801.255628 4470.092839 4175.242006 3888.385268 3590.954667 3274.116636 2948.547155 2648.028303 2349.729657 2037.551353 1898.355533 1769.109465 1351.331242 1319.805867 1171.517296 1623.633904 694.970347 -17.133371 -69.790987 992.617579 -718.789576 -845.291170 240.781403 -717.570702 -1471.629148 -1348.884873 -1106.321103 -887.047742 -718.110697 -574.170555 -448.338557 -340.084080 -250.198591 -178.575490 -123.801726 -83.504800 -54.894600 -35.227506 -22.098084 -13.563955 -8.151901 -4.798527 -2.766604 -1.562062 -0.863424 -0.467041 -0.247122 -0.127855 -0.064657 -0.031950 -0.015423 -0.007271 -0.003347 -0.001504 -0.000660 -0.000283 -0.000118 -0.000048 -0.000019 -0.000007 -0.000003 -0.000001 -0.000000 -0.000000 -0.000000 -0.000000 -0.000000 -0.000000 -0.000000 -0.000000 -0.000000 -0.000000 -0.000000 -0.000000 -0.000000 -0.000000 -0.000000 -0.000000 -0.000000 -0.000000 -0.000000 9878.206217 9878.206217 9878.206217 9873.565401 9759.906128 8334.550472 8166.227065 8931.979707 10575.007939 10450.665411 9610.332346 10109.909225 11003.260833 9553.740116 10346.118873 10035.939375 9780.453225 9124.149309 8433.216629 8020.228712 8021.061816 7863.607738 7590.043513 7101.239460 6660.267353 6190.748679 5668.111187 5065.113004 4518.201328 4162.651649 3996.471077 3871.433507 3627.380369 3236.912186 2762.998040 2324.824072 2008.714626 1938.123353 1885.801954 1449.692141 1973.828771 2110.522152 984.215292 1056.852751 797.317420 3405.596319 55.937202 -1778.188201 -3859.534827 2350.695331 -2831.304657 -2339.211989 1346.952427 -1442.882455 -2785.607044 -2012.990498 -1496.838894 -1046.275289 -781.292305 -599.273936 -457.341918 -342.187418 -249.449971 -176.830130 -121.913780 -81.839676 -53.571123 -34.244314 -21.403080 -13.091589 -7.841185 -4.599886 -2.642860 -1.486839 -0.818773 -0.441157 -0.232472 -0.119762 -0.060295 -0.029657 -0.014248 -0.006684 -0.003061 -0.001369 -0.000597 -0.000255 -0.000106 -0.000043 -0.000017 -0.000007 -0.000002 -0.000001 -0.000000 -0.000000 -0.000000 -0.000000 -0.000000 -0.000000 -0.000000 -0.000000 0.000000 0.000000 -0.000000 -0.000000 -0.000000 -0.000000 -0.000000 -0.000000 -0.000000 -0.000000 -0.000000 -0.000000 -0.000000 -0.000000 -0.000000 -0.000000 -0.000000 -0.000000 -0.000000 -0.000000 -0.000000 -0.000000 -0.000000 -0.000000 -0.000000 -0.000000 -0.000000 -0.000000 -0.000000 -0.000000 -0.000000 -0.000000 -0.000000 -0.000000 -0.000000 -0.000000 -0.000000 -0.000000 -0.000000 -0.000000 -0.000000 -0.000000 -0.000000 -0.000000 -0.000000 -0.000000 -0.000000 -0.000000 -0.000000 -0.000000 -0.000000 -0.000000 -0.000000 -0.000000 -0.000000 -0.000000 -0.000000 -0.000000 -0.000000 -0.000000 -0.000000 -0.000000 -0.000000 -0.000000 -0.000000 -0.000000 -0.000000 -0.000000 -0.000000 -0.000000 -0.000000 -0.000000 -0.000000 -0.000000 -0.000000 -0.000000 -0.000000 -0.000000 -0.000000 -0.000000 -0.000000 -0.000000 -0.000000 -0.000000 -0.000000 -0.000000 -0.000000 -0.000000 -0.000000 -0.000000 -0.000000 -0.000000 -0.000000 -0.000000 -0.000000 -0.000000 -0.000000 -0.000000 -0.000000 -0.000000 -0.000000 -0.000000 -0.000000 -0.000000 -0.000000 -0.000000 -0.000000 -0.000000 -0.000000 -0.000000 -0.000000 -0.000000 -0.000000 -0.000000 -0.000000 -0.000000 -0.000000 -0.000000 -0.000000 -0.000000 -0.000000 -0.000000 -0.000000 -0.000000 -0.000000 -0.000000 -0.000000 -0.000000 -0.000000 -0.000000 -0.000000 -0.000000 -0.000000 -0.000000 -0.000000 -0.000000 -0.000000 -0.000000 -0.000000 -0.000000 -0.000000 -0.000000 -0.000000 -0.000000 -0.000000 -0.000000 -0.000000 -0.000000 -0.000000 -0.000000 -0.000000 -0.000000 -0.000000 -0.000000 -0.000000 -0.000000 -0.000000 -0.000000 -0.000000 -0.000000 -0.000000 -0.000000 -0.000000 -0.000000 -0.000000 -0.000000 -0.000000 -0.000000 -0.000000 -0.000000 -0.000000 -0.000000 -0.000000 -0.000000 -0.000000 -0.000000 -0.000000 -0.000000 -0.000000 -0.000000 -0.000000 -0.000000 -0.000000 -0.000000 -0.000000 -0.000000 -0.000000 -0.000000 -0.000000 -0.000000 -0.000000 -0.000000 -0.000000 -0.000000 -0.000000 -0.000000 -0.000000 -0.000000 -0.000000 -0.000000 -0.000000 -0.000000 -0.000000 -0.000000 -0.000000 -0.000000 -0.000000 -0.000000 -0.000000 -0.000000 -0.000000 -0.000000 -0.000000 -0.000000 -0.000000 -0.000000 -0.000000 -0.000000 -0.000000 -0.000000 -0.000000 -0.000000 -0.000000 -0.000000 -0.000000 -0.000000 -0.000000 -0.000000 -0.000000 -0.000000 -0.000000 -0.000000 -0.000000 -0.000000 -0.000000 -0.000000 -0.000000 -0.000000 -0.000000 -0.000000 -0.000000 -0.000000 -0.000000 -0.000000 -0.000000 -0.000000 -0.000000 -0.000000 -0.000000 -0.000000 -0.000000 -0.000000 -0.000000 -0.000000 -0.000000 -0.000000 -0.000000 -0.000000 -0.000000 -0.000000 -0.000000 -0.000000 -0.000000 -0.000000 -0.000000 -0.000000 -0.000000 -0.000000 -0.000000 -0.000000 -0.000000 -0.000000 -0.000000 -0.000000 -0.000000 -0.000000 -0.000000 -0.000000 -0.000000 -0.000000 -0.000000 -0.000000 -0.000000 -0.000000 0.000000 0.000000 0.000000 -0.000000 -0.000000 -0.000000 0.000000 0.000000 0.000000 -0.000000 -0.000000 -0.000000 0.000000 0.000000 0.000000 -0.000000 -0.000000 -0.000000 0.000000 0.000000 0.000000 -0.000000 -0.000000 -0.000000 0.000000 0.000000 0.000000 -0.000000 -0.000000 -0.000000 0.000000 0.000000 0.000000 -0.000000 -0.000000 -0.000000 0.000000 0.000000 0.000000 -0.000000 -0.000000 -0.000000 0.000000 0.000000 0.000000 -0.000000 -0.000000 -0.000000 0.000000 0.000000 0.000000 -0.000000 -0.000000 -0.000000 0.000000 0.000000 0.000000 -0.000000 -0.000000 -0.000000 0.000000 0.000000 0.000000 -0.000000 -0.000000 -0.000000 0.000000 0.000000 0.000000 -0.000000 -0.000000 -0.000000 0.000000 0.000000 0.000000 -0.000000 -0.000000 -0.000000 0.000000 0.000000 0.000000 -0.000000 -0.000000 -0.000000 0.000000 0.000000 0.000000 -0.000000 -0.000000 -0.000000 0.000000 0.000000 0.000000 -0.000000 -0.000000 -0.000000 0.000000 0.000000 0.000000 -0.000000 -0.000000 -0.000000 0.000000 0.000000 0.000000 -0.000000 -0.000000 -0.000000 0.000000 0.000000 0.000000 -0.000000 -0.000000 -0.000000 0.000000 0.000000 0.000000 -0.000000 -0.000000 -0.000000 0.000000 0.000000 0.000000 -0.000000 -0.000000 -0.000000 0.000000 0.000000 0.000000 -0.000000 -0.000000 -0.000000 0.000000 0.000000 0.000000 -0.000000 -0.000000 -0.000000 0.000000 0.000000 0.000000 -0.000000 -0.000000 -0.000000 0.000000 0.000000 0.000000 -0.000000 -0.000000 -0.000000 0.000000 0.000000 0.000000 -0.000000 -0.000000 -0.000000 0.000000 0.000000 0.000000 -0.000000 -0.000000 -0.000000 0.000000 0.000000 0.000000 -0.000000 -0.000000 -0.000000 0.000000 0.000000 0.000000 -0.000000 -0.000000 -0.000000 0.000000 0.000000 0.000000 -0.000000 -0.000000 -0.000000 0.000000 0.000000 0.000000 -0.000000 -0.000000 -0.000000 0.000000 0.000000 0.000000 -0.000000 -0.000000 -0.000000 0.000000 0.000000 0.000000 -0.000000 -0.000000 -0.000000 0.000000 0.000000 0.000000 -0.000000 -0.000000 -0.000000 0.000000 0.000000 0.000000 -0.000000 -0.000000 -0.000000 0.000000 0.000000 0.000000 -0.000000 -0.000000 -0.000000 0.000000 0.000000 0.000000 -0.000000 -0.000000 -0.000000 0.000000 0.000000 0.000000 -0.000000 -0.000000 -0.000000 0.000000 0.000000 0.000000 -0.000000 -0.000000 -0.000000 0.000000 0.000000 0.000000 -0.000000 -0.000000 -0.000000 0.000000 0.000000 0.000000 -0.000000 -0.000000 -0.000000 0.000000 0.000000 0.000000 -0.000000 -0.000000 -0.000000 0.000000 0.000000 0.000000 -0.000000 -0.000000 -0.000000 0.000000 0.000000 0.000000 -0.000000 -0.000000 -0.000000 0.000000 0.000000 0.000000 -0.000000 -0.000000 -0.000000 0.000000 0.000000 0.000000 -0.000000 -0.000000 -0.000000 0.000000 0.000000 0.000000 -0.000000 -0.000000 -0.000000 0.000000 0.000000 0.000000 -0.000000 -0.000000 -0.000000 0.000000 0.000000 0.000000 -0.000000 -0.000000 -0.000000 0.000000 0.000000 0.000000 -0.000000 -0.000000 -0.000000 0.000000 0.000000 0.000000 -0.000000 -0.000000 -0.000000 0.000000 0.000000 0.000000 -0.000000 -0.000000 -0.000000 0.000000 0.000000 0.000000 -0.000000 -0.000000 -0.000000 0.000000 0.000000 0.000000 -0.000000 -0.000000 -0.000000 0.000000 0.000000 0.000000 -0.000000 -0.000000 -0.000000 0.000000 0.000000 0.000000 -0.000000 -0.000000 -0.000000 0.000000 0.000000 0.000000 -0.000000 -0.000000 -0.000000 0.000000 0.000000 0.000000 -0.000000 -0.000000 -0.000000 0.000000 0.000000 0.000000 -0.000000 -0.000000 -0.000000 0.000000 0.000000 0.000000 -0.000000 -0.000000 -0.000000 0.000000 0.000000 0.000000 -0.000000 -0.000000 -0.000000 0.000000 0.000000 0.000000 -0.000000 -0.000000 -0.000000 0.000000 0.000000 0.000000 -0.000000 -0.000000 -0.000000 0.000000 0.000000 0.000000 -0.000000 -0.000000 -0.000000 0.000000 0.000000 0.000000 -0.000000 -0.000000 -0.000000 0.000000 0.000000 0.000000 -0.000000 -0.000000 -0.000000 0.000000 0.000000 0.000000 -0.000000 -0.000000 -0.000000 0.000000 0.000000 0.000000 -0.000000 -0.000000 -0.000000 0.000000 0.000000 0.000000 -0.000000 -0.000000 -0.000000 0.000000 0.000000 0.000000 -0.000000 -0.000000 -0.000000 0.000000 0.000000 0.000000 -0.000000 -0.000000 -0.000000 0.000000 0.000000 0.000000 -0.000000 -0.000000 -0.000000 0.000000 0.000000 0.000000 -0.000000 -0.000000 -0.000000 0.000000 0.000000 0.000000 -0.000000 -0.000000 -0.000000 0.000000 0.000000 0.000000 -0.000000 -0.000000 -0.000000 0.000000 0.000000 0.000000 -0.000000 -0.000000 -0.000000 0.000000 0.000000 0.000000 -0.000000 -0.000000 -0.000000 0.000000 0.000000 0.000000 -0.000000 -0.000000 -0.000000 0.000000 0.000000 0.000000 -0.000000 -0.000000 -0.000000 0.000000 0.000000 0.000000 -0.000000 -0.000000 -0.000000 0.000000 0.000000 0.000000 -0.000000 -0.000000 -0.000000 0.000000 0.000000 0.000000 -0.000000 -0.000000 -0.000000 0.000000 0.000000 0.000000 -0.000000 -0.000000 -0.000000 0.000000 0.000000 0.000000 -0.000000 -0.000000 -0.000000 0.000000 0.000000 0.000000 -0.000000 -0.000000 -0.000000 0.000000 0.000000 0.000000 -0.000000 -0.000000 -0.000000 0.000000 0.000000 0.000000 -0.000000 -0.000000 -0.000000 0.000000 0.000000 0.000000 -0.000000 -0.000000 -0.000000 0.000000 0.000000 0.000000 -0.000000 -0.000000 -0.000000 0.000000 0.000000 0.000000 -0.000000 -0.000000 -0.000000 0.000000 0.000000 0.000000 -0.000000 -0.000000 -0.000000 0.000000 0.000000 0.000000 -0.000000 -0.000000 -0.000000 0.000000 0.000000 0.000000 -0.000000 -0.000000 -0.000000 0.000000 0.000000 0.000000 -0.000000 -0.000000 -0.000000 0.000000 0.000000 0.000000 -0.000000 -0.000000 -0.000000 0.000000 0.000000 0.000000 -0.000000 -0.000000 -0.000000 0.000000 0.000000 0.000000 -0.000000 -0.000000 -0.000000 0.000000 0.000000 0.000000 -0.000000 -0.000000 -0.000000 0.000000 0.000000 0.000000 -0.000000 -0.000000 -0.000000 0.000000 0.000000 0.000000 -0.000000 -0.000000 -0.000000 0.000000 0.000000 0.000000 -0.000000 -0.000000 -0.000000 0.000000 0.000000 0.000000 -0.000000 -0.000000 -0.000000 0.000000 0.000000 0.000000 -0.000000 -0.000000 -0.000000 0.000000 0.000000 0.000000 -0.000000 -0.000000 -0.000000 0.000000 0.000000 0.000000 -0.000000 -0.000000 -0.000000 0.000000 0.000000 0.000000 -0.000000 -0.000000 -0.000000 0.000000 0.000000 0.000000 -0.000000 -0.000000 -0.000000 0.000000 0.000000 0.000000 -0.000000 -0.000000 -0.000000 0.000000 0.000000 0.000000 -0.000000 -0.000000 -0.000000 0.000000 0.000000 0.000000 -0.000000 -0.000000 -0.000000 0.000000 0.000000 0.000000 -0.000000 -0.000000 -0.000000 0.000000 0.000000 0.000000 -0.000000 -0.000000 -0.000000 0.000000 0.000000 0.000000 -0.000000 -0.000000 -0.000000 0.000000 0.000000 0.000000 -0.000000 -0.000000 -0.000000 0.000000 0.000000 0.000000 -0.000000 -0.000000 -0.000000 -0.000000 -0.000000 -0.000000 -0.000000 -0.000000 -0.000000 -0.000000 -0.000000 -0.000000 -0.000000 -0.000000 -0.000000 -0.000000 -0.000000 -0.000000 -0.000000 -0.000000 -0.000000 -0.000000 -0.000000 -0.000000 -0.000000 -0.000000 -0.000000 -0.000000 -0.000000 -0.000000 0.000000 -0.000000 -0.000000 -0.000000 -0.000000 -0.000000 0.000000 -0.000000 -0.000000 -0.000000 -0.000000 -0.000000 0.000000 -0.000000 -0.000000 -0.000000 -0.000000 -0.000000 0.000000 -0.000000 -0.000000 -0.000000 -0.000000 -0.000000 0.000000 -0.000000 -0.000000 -0.000000 -0.000000 -0.000000 0.000000 -0.000000 -0.000000 -0.000000 -0.000000 -0.000000 0.000000 -0.000000 -0.000000 -0.000000 -0.000000 -0.000000 0.000000 -0.000000 -0.000000 -0.000000 -0.000000 -0.000000 0.000000 -0.000000 -0.000000 -0.000000 -0.000000 -0.000000 0.000000 -0.000000 -0.000000 -0.000000 -0.000000 -0.000000 0.000000 -0.000000 -0.000000 -0.000000 -0.000000 -0.000000 0.000000 -0.000000 -0.000000 -0.000000 -0.000000 -0.000000 0.000000 -0.000000 -0.000000 -0.000000 -0.000000 -0.000000 0.000000 -0.000000 -0.000000 -0.000000 -0.000000 -0.000000 0.000000 -0.000000 -0.000000 -0.000000 -0.000000 -0.000000 0.000000 -0.000000 -0.000000 -0.000000 -0.000000 -0.000000 0.000000 -0.000000 -0.000000 -0.000000 -0.000000 -0.000000 0.000000 -0.000000 -0.000000 -0.000000 -0.000000 -0.000000 0.000000 -0.000000 -0.000000 -0.000000 -0.000000 -0.000000 0.000000 -0.000000 -0.000000 -0.000000 -0.000000 -0.000000 0.000000 -0.000000 -0.000000 -0.000000 -0.000000 -0.000000 0.000000 -0.000000 -0.000000 -0.000000 -0.000000 -0.000000 0.000000 -0.000000 -0.000000 -0.000000 -0.000000 -0.000000 0.000000 -0.000000 -0.000000 -0.000000 -0.000000 -0.000000 0.000000 -0.000000 -0.000000 -0.000000 -0.000000 -0.000000 0.000000 -0.000000 -0.000000 -0.000000 -0.000000 -0.000000 0.000000 -0.000000 -0.000000 -0.000000 -0.000000 -0.000000 0.000000 -0.000000 -0.000000 -0.000000 -0.000000 -0.000000 0.000000 -0.000000 -0.000000 -0.000000 -0.000000 -0.000000 0.000000 -0.000000 -0.000000 -0.000000 -0.000000 -0.000000 0.000000 -0.000000 -0.000000 -0.000000 -0.000000 -0.000000 0.000000 -0.000000 -0.000000 -0.000000 -0.000000 -0.000000 0.000000 -0.000000 -0.000000 -0.000000 -0.000000 -0.000000 0.000000 -0.000000 -0.000000 -0.000000 -0.000000 -0.000000 -0.000000 -0.000000 0.000000 0.000000 0.000000 0.000000 7258.126856 7258.126856 7258.126856 7384.706137 8943.294460 14429.156867 18798.177118 23453.157060 21403.259490 17376.131627 20780.905882 18464.153924 15842.826664 16251.616895 15237.365975 14081.875824 13238.031247 11918.685698 10540.806970 9008.547570 7185.118836 5612.336730 3755.722568 3699.199275 -696.225811 -2623.237640 -1152.848992 -520.997587 -217.318323 -83.159584 -29.518329 -12.129771 -9.495205 -11.427216 -13.456839 -14.061823 -13.163815 -11.259932 -8.940504 -6.665780 -4.705726 -3.164916 -2.037347 -1.259706 -0.750179 -0.431213 -0.239665 -0.128977 -0.067286 -0.034061 -0.016745 -0.008000 -0.003717 -0.001680 -0.000739 -0.000317 -0.000132 -0.000054 -0.000021 -0.000008 -0.000003 -0.000001 -0.000000 -0.000000 -0.000000 -0.000000 -0.000000 -0.000000 -0.000000 -0.000000 -0.000000 -0.000000 -0.000000 -0.000000 -0.000000 -0.000000 -0.000000 -0.000000 -0.000000 -0.000000 -0.000000 -0.000000 -0.000000 -0.000000 -0.000000 -0.000000 -0.000000 -0.000000 -0.000000 -0.000000 -0.000000 -0.000000 -0.000000 -0.000000 -0.000000 -0.000000 -0.000000 -0.000000 -0.000000 -0.000000 -0.000000 -0.000000 -0.000000 -0.000000 -0.000000 -0.000000 -0.000000 0.000000 -0.000000 -0.000000 -0.000000 6299.241600 6299.241600 6299.241600 6377.568689 7225.495017 9985.494720 13001.006855 15223.322605 13136.321696 11420.875020 11904.731058 10989.200937 9994.968905 9823.242065 8958.822522 8178.174754 7455.135550 6586.859468 5664.999901 4764.226715 3814.371887 2963.577905 2203.448356 1742.744809 420.842752 -425.436139 -414.527069 -208.936326 -84.717327 -26.901271 -5.856224 -2.183164 -5.219725 -9.482700 -12.503628 -13.575320 -12.930341 -11.176563 -8.944596 -6.714220 -4.769576 -3.226934 -2.089221 -1.299046 -0.777893 -0.449596 -0.251243 -0.135942 -0.071304 -0.036291 -0.017938 -0.008617 -0.004025 -0.001829 -0.000809 -0.000348 -0.000146 -0.000060 -0.000024 -0.000009 -0.000003 -0.000001 -0.000000 -0.000000 -0.000000 -0.000000 -0.000000 -0.000000 -0.000000 -0.000000 -0.000000 -0.000000 -0.000000 -0.000000 0.000000 -0.000000 -0.000000 0.000000 -0.000000 -0.000000 -0.000000 -0.000000 -0.000000 -0.000000 -0.000000 -0.000000 -0.000000 0.000000 -0.000000 -0.000000 0.000000 -0.000000 -0.000000 -0.000000 -0.000000 -0.000000 -0.000000 -0.000000 -0.000000 -0.000000 0.000000 -0.000000 -0.000000 0.000000 -0.000000 -0.000000 -0.000000 -0.000000 -0.000000 -0.000000 -0.000000 5772.646830 5772.646830 5772.646830 5801.401352 6101.280527 6843.805647 7378.061866 7689.052638 7476.579824 7196.775194 7036.885890 6817.411804 6494.155762 6122.538461 5669.131639 5154.551665 4614.061201 4058.400540 3503.872785 2963.460245 2444.331892 1960.838214 1517.730074 1089.590934 638.193400 285.954730 113.804274 54.106785 34.697000 24.897691 16.122369 7.122933 -1.160964 -7.583251 -11.533430 -13.057957 -12.671661 -11.079205 -8.944998 -6.765988 -4.840337 -3.296825 -2.148337 -1.344274 -0.809993 -0.471031 -0.264829 -0.144164 -0.076075 -0.038954 -0.019371 -0.009361 -0.004399 -0.002012 -0.000895 -0.000388 -0.000164 -0.000067 -0.000027 -0.000011 -0.000004 -0.000001 -0.000001 -0.000000 -0.000000 -0.000000 -0.000000 -0.000000 -0.000000 -0.000000 -0.000000 -0.000000 -0.000000 -0.000000 -0.000000 -0.000000 -0.000000 -0.000000 -0.000000 -0.000000 -0.000000 -0.000000 -0.000000 -0.000000 -0.000000 -0.000000 -0.000000 -0.000000 -0.000000 -0.000000 -0.000000 -0.000000 -0.000000 -0.000000 -0.000000 -0.000000 -0.000000 -0.000000 -0.000000 -0.000000 -0.000000 -0.000000 -0.000000 -0.000000 -0.000000 -0.000000 -0.000000 0.000000 0.000000 0.000000 0.000000 5702.667057 5702.667057 5702.667057 5727.037759 5972.822377 6497.162100 6871.231804 7023.817280 6919.755108 6731.911442 6573.024514 6374.052279 6093.683878 5741.525507 5316.198874 4836.720124 4329.035038 3810.908519 3297.092408 2798.152868 2320.898710 1872.430621 1453.278884 1052.594332 670.941570 366.613785 182.042237 92.743326 52.965069 32.936605 19.551773 8.581904 -0.518009 -7.276123 -11.372039 -12.969402 -12.626256 -11.061597 -8.944643 -6.774888 -4.852775 -3.309233 -2.158901 -1.352398 -0.815784 -0.474914 -0.267299 -0.145664 -0.076948 -0.039443 -0.019635 -0.009499 -0.004469 -0.002045 -0.000911 -0.000395 -0.000167 -0.000069 -0.000028 -0.000011 -0.000004 -0.000002 -0.000001 -0.000000 -0.000000 -0.000000 -0.000000 -0.000000 -0.000000 -0.000000 -0.000000 -0.000000 -0.000000 -0.000000 -0.000000 -0.000000 -0.000000 -0.000000 -0.000000 -0.000000 -0.000000 -0.000000 -0.000000 -0.000000 -0.000000 -0.000000 -0.000000 -0.000000 -0.000000 -0.000000 -0.000000 -0.000000 -0.000000 -0.000000 -0.000000 -0.000000 -0.000000 -0.000000 -0.000000 -0.000000 -0.000000 -0.000000 -0.000000 -0.000000 -0.000000 0.000000 0.000000 0.000000 0.000000 0.000000 0.000000 5702.667057 5702.667057 5702.667057 5727.037759 5972.822377 6497.162100 6871.231804 7023.817280 6919.755108 6731.911442 6573.024514 6374.052279 6093.683878 5741.525507 5316.198874 4836.720124 4329.035038 3810.908519 3297.092408 2798.152868 2320.898710 1872.430621 1453.278884 1052.594332 670.941570 366.613785 182.042237 92.743326 52.965069 32.936605 19.551773 8.581904 -0.518009 -7.276123 -11.372039 -12.969402 -12.626256 -11.061597 -8.944643 -6.774888 -4.852775 -3.309233 -2.158901 -1.352398 -0.815784 -0.474914 -0.267299 -0.145664 -0.076948 -0.039443 -0.019635 -0.009499 -0.004469 -0.002045 -0.000911 -0.000395 -0.000167 -0.000069 -0.000028 -0.000011 -0.000004 -0.000002 -0.000001 -0.000000 -0.000000 -0.000000 -0.000000 -0.000000 -0.000000 -0.000000 -0.000000 -0.000000 -0.000000 -0.000000 -0.000000 -0.000000 -0.000000 -0.000000 -0.000000 -0.000000 -0.000000 -0.000000 -0.000000 -0.000000 -0.000000 -0.000000 -0.000000 -0.000000 -0.000000 -0.000000 -0.000000 -0.000000 -0.000000 -0.000000 -0.000000 -0.000000 -0.000000 -0.000000 -0.000000 -0.000000 -0.000000 -0.000000 -0.000000 -0.000000 -0.000000 0.000000 0.000000 0.000000 0.000000 0.000000 0.000000 5702.667057 5702.667057 5702.667057 5727.037759 5972.822377 6497.162100 6871.231804 7023.817280 6919.755108 6731.911442 6573.024514 6374.052279 6093.683878 5741.525507 5316.198874 4836.720124 4329.035038 3810.908519 3297.092408 2798.152868 2320.898710 1872.430621 1453.278884 1052.594332 670.941570 366.613785 182.042237 92.743326 52.965069 32.936605 19.551773 8.581904 -0.518009 -7.276123 -11.372039 -12.969402 -12.626256 -11.061597 -8.944643 -6.774888 -4.852775 -3.309233 -2.158901 -1.352398 -0.815784 -0.474914 -0.267299 -0.145664 -0.076948 -0.039443 -0.019635 -0.009499 -0.004469 -0.002045 -0.000911 -0.000395 -0.000167 -0.000069 -0.000028 -0.000011 -0.000004 -0.000002 -0.000001 -0.000000 -0.000000 -0.000000 -0.000000 -0.000000 -0.000000 -0.000000 -0.000000 -0.000000 -0.000000 -0.000000 -0.000000 -0.000000 -0.000000 -0.000000 -0.000000 -0.000000 -0.000000 -0.000000 -0.000000 -0.000000 -0.000000 -0.000000 -0.000000 -0.000000 -0.000000 -0.000000 -0.000000 -0.000000 -0.000000 -0.000000 -0.000000 -0.000000 -0.000000 -0.000000 -0.000000 -0.000000 -0.000000 -0.000000 -0.000000 -0.000000 -0.000000 0.000000 0.000000 0.000000 0.000000 0.000000 0.000000 10111.031295 10111.031295 10111.031295 10112.247334 10049.668066 8271.699880 8000.638979 8849.386487 10839.042141 10627.117546 9648.456982 10212.158883 11408.270303 9450.033549 10423.780327 10098.740886 9665.132804 8906.886855 8158.117879 7740.087045 7912.749100 7790.606137 7553.770091 7057.010817 6673.941088 6234.007117 5632.135770 4910.400537 4324.403499 4051.797999 3993.383164 3925.738723 3654.473119 3154.459689 2580.414191 2119.058683 1836.375707 1896.465816 1991.711200 1568.542168 2248.751570 2599.159630 1320.916221 1255.189309 659.029214 3555.911531 -607.021318 -2617.129916 -5653.479203 2131.456125 -3209.174825 -2572.447600 1401.753747 -1630.804030 -2962.763154 -2080.072308 11763.173779 11763.173779 11763.173779 11925.671658 13466.036538 11386.825198 9813.948176 10617.860752 12942.633224 14726.958566 15187.164127 11577.474945 11667.511871 12921.550308 15258.390534 13727.739847 12803.298268 12109.928395 12190.380690 11945.754740 10900.621279 10000.680641 9724.862246 9229.634061 9139.362870 9298.441123 9106.118954 8952.970483 8716.774427 8353.868891 8097.896506 7712.161897 7169.596871 6500.477272 5819.778211 5383.398659 5194.151732 5133.709200 5054.778334 4760.553855 4192.843445 3503.325824 2903.657684 2527.409533 2427.408793 2484.063364 2783.218175 3154.420101 2915.787900 3040.597666 3439.006553 3189.189416 2102.411111 -2057.188783 1384.011144 1149.675640 14363.638669 14363.638669 14363.638669 14598.851249 17423.613081 16017.649054 16215.941654 11541.941243 13084.986443 16994.465755 13905.349284 13657.944491 14806.631090 16163.221352 15958.163108 14413.517152 14464.151530 13416.222196 14110.158633 15036.807872 14404.815044 13292.652397 13038.089370 12172.563387 11739.412615 11580.008900 11127.331884 10995.784122 10755.708996 10279.666507 9972.689107 9553.320588 9100.048602 8581.409116 7892.284148 7250.240551 6771.291315 6514.005451 6391.263329 6200.289175 5805.587391 5210.500202 4563.625659 4003.359763 3719.508954 3494.363855 3375.695482 3278.311244 3414.808163 3047.208734 2918.624499 2546.257649 3075.566071 2135.606741 3858.689001 2700.321242 16599.011182 16599.011182 16599.011182 16695.620402 17673.467065 16288.624957 15287.492316 19615.708543 14647.089545 17048.385617 18684.062524 21299.340720 21190.671552 18826.444026 19917.430022 18121.617653 18174.527903 17386.059505 17026.706101 17420.548246 16435.425355 15040.392239 14465.857740 13941.846923 13599.512615 13782.190522 13288.948175 12815.851906 12260.304505 11701.053971 11534.725651 11197.674629 10699.127365 9923.063339 8984.210801 8231.596561 7777.995123 7610.118748 7516.725171 7247.930926 6704.177551 5952.254117 5195.445039 4542.021702 4162.472602 3900.199111 3781.204118 3500.119911 3470.695889 3294.880233 3114.204492 2939.366995 1910.440906 2167.155027 1189.567242 741.270751 18357.464132 18357.464132 18357.464132 18288.804703 17791.698723 16893.638803 16444.740227 13552.309025 15307.394383 17376.443068 21535.470090 22261.782855 19927.219294 17467.571876 18887.877217 18438.728497 18691.346770 18512.964339 18009.845871 17933.300030 16988.519326 15917.966753 15370.891794 14969.366331 14398.528445 14309.245643 13535.710621 13070.112795 12634.640547 12274.862268 12165.147818 11711.878141 11002.196668 10044.220342 9060.555477 8374.901464 8027.730803 7930.519733 7833.027698 7487.578343 6859.523254 6044.392428 5296.044701 4687.152991 4306.523155 3998.379335 3762.634693 3499.692289 3165.015709 2997.329719 2485.435031 2369.761404 2349.987104 1234.834048 712.939064 394.847128 19681.660270 19681.660270 19681.660270 19556.103379 18274.248798 16494.541819 22163.683219 17903.919835 20895.546055 21829.207068 23145.779203 24563.731352 22400.15441