<VTKFile type="PolyData">
<PolyData>
<Piece NumberOfPoints="8632" NumberOfVerts="8632" NumberOfLines="0" NumberOfStrips="0" NumberOfPolys="0">
<PointData>
<DataArray type="Float64" Name="Pressure" format="ascii">
 13368.068732 13368.068732 13368.068732 13370.131720 13390.422966 13426.042402 13412.007528 13322.473556 13148.540412 12896.918203 12583.194997 12216.907052 11792.550835 11308.658229 10785.476334 10242.191992 9679.581506 9106.563189 8550.606606 8021.827815 7507.060451 6999.893953 6494.635752 5967.768606 5402.488819 4805.642634 4185.053779 3536.454144 2858.368290 2173.998841 1548.208419 1063.524089 750.700196 570.861416 462.989911 368.845272 237.097226 61.914424 -86.121208 -162.788717 -204.782872 -279.437635 -432.887597 -624.762796 -781.174149 -915.952323 -1087.942301 -1291.749975 -1444.999162 -1515.893528 -1530.074453 -1513.851612 -1481.699792 -1441.175102 -1396.048728 -1347.884811 -1297.275179 -1244.991949 -1192.074584 -1139.245460 -1086.870848 -1035.150812 -984.222369 -934.202610 -885.202306 -837.327926 -790.679805 -745.349620 -701.418322 -658.954829 -618.015451 -578.643930 -540.871888 -504.719558 -470.196660 -437.303336 -406.031087 -376.363674 -348.277969 -321.744745 -296.729410 -273.192695 -251.091283 -230.378413 -211.004432 -192.917327 -176.063212 -160.386795 -145.831803 -132.341385 -119.858473 -108.326121 -97.687797 -87.887657 -78.870778 -70.583367 -62.972942 -55.988516 -49.580786 -43.702446 -38.308796 -33.359163 -28.820308 -24.674145 -20.931487 -17.633105 -14.763313 -12.910057 -12.559589 -12.559589 -12.559589 13368.068732 13368.068732 13368.068732 13370.131720 13390.422966 13426.042402 13412.007528 13322.473556 13148.540412 12896.918203 12583.194997 12216.907052 11792.550835 11308.658229 10785.476334 10242.191992 9679.581506 9106.563189 8550.606606 8021.827815 7507.060451 6999.893953 6494.635752 5967.768606 5402.488819 4805.642634 4185.053779 3536.454144 2858.368290 2173.998841 1548.208419 1063.524089 750.700196 570.861416 462.989911 368.845272 237.097226 61.914424 -86.121208 -162.788717 -204.782872 -279.437635 -432.887597 -624.762796 -781.174149 -915.952323 -1087.942301 -1291.749975 -1444.999162 -1515.893528 -1530.074453 -1513.851612 -1481.699792 -1441.175102 -1396.048728 -1347.884811 -1297.275179 -1244.991949 -1192.074584 -1139.245460 -1086.870848 -1035.150812 -984.222369 -934.202610 -885.202306 -837.327926 -790.679805 -745.349620 -701.418322 -658.954829 -618.015451 -578.643930 -540.871888 -504.719558 -470.196660 -437.303336 -406.031087 -376.363674 -348.277969 -321.744745 -296.729410 -273.192695 -251.091283 -230.378413 -211.004432 -192.917327 -176.063212 -160.386795 -145.831803 -132.341385 -119.858473 -108.326121 -97.687797 -87.887657 -78.870778 -70.583367 -62.972942 -55.988516 -49.580786 -43.702446 -38.308796 -33.359163 -28.820308 -24.674145 -20.931487 -17.633105 -14.763313 -12.910057 -12.559589 -12.559589 -12.559589 13368.068732 13368.068732 13368.068732 13370.131720 13390.422966 13426.042402 13412.007528 13322.473556 13148.540412 12896.918203 12583.194997 12216.907052 11792.550835 11308.658229 10785.476334 10242.191992 9679.581506 9106.563189 8550.606606 8021.827815 7507.060451 6999.893953 6494.635752 5967.768606 5402.488819 4805.642634 4185.053779 3536.454144 2858.368290 2173.998841 1548.208419 1063.524089 750.700196 570.861416 462.989911 368.845272 237.097226 61.914424 -86.121208 -162.788717 -204.782872 -279.437635 -432.887597 -624.762796 -781.174149 -915.952323 -1087.942301 -1291.749975 -1444.999162 -1515.893528 -1530.074453 -1513.851612 -1481.699792 -1441.175102 -1396.048728 -1347.884811 -1297.275179 -1244.991949 -1192.074584 -1139.245460 -1086.870848 -1035.150812 -984.222369 -934.202610 -885.202306 -837.327926 -790.679805 -745.349620 -701.418322 -658.954829 -618.015451 -578.643930 -540.871888 -504.719558 -470.196660 -437.303336 -406.031087 -376.363674 -348.277969 -321.744745 -296.729410 -273.192695 -251.091283 -230.378413 -211.004432 -192.917327 -176.063212 -160.386795 -145.831803 -132.341385 -119.858473 -108.326121 -97.687797 -87.887657 -78.870778 -70.583367 -62.972942 -55.988516 -49.580786 -43.702446 -38.308796 -33.359163 -28.820308 -24.674145 -20.931487 -17.633105 -14.763313 -12.910057 -12.559589 -12.559589 -12.559589 13387.797669 13387.797669 13387.797669 13390.288346 13417.684906 13470.554158 13466.835990 13381.559219 13208.655537 12954.630954 12636.580855 12270.994616 11849.706358 11362.060716 10834.448153 10292.796780 9727.692043 9146.768514 8597.310728 8089.350850 7583.497822 7071.850879 6568.782689 6048.509817 5481.414967 4882.050567 4261.708866 3608.695771 2913.467665 2192.966095 1524.447466 1020.161556 716.642201 555.031536 464.818237 386.248694 258.950250 50.915693 -110.591577 -173.249843 -192.244757 -251.583184 -418.339328 -644.652966 -787.302018 -899.668905 -1091.942918 -1331.806005 -1471.144255 -1534.635627 -1540.456983 -1519.404799 -1484.721076 -1442.953666 -1397.315314 -1348.969793 -1298.075322 -1245.422738 -1192.258049 -1139.314594 -1086.891490 -1035.151098 -984.213656 -934.189417 -885.186461 -837.310222 -790.660647 -745.329276 -701.397010 -658.932746 -617.992785 -578.620854 -540.848564 -504.696135 -470.173271 -437.280102 -406.008115 -376.341059 -348.255795 -321.723086 -296.708330 -273.172249 -251.071518 -230.359367 -210.986138 -192.899809 -176.046490 -160.370879 -145.816701 -132.327099 -119.845001 -108.313454 -97.675925 -87.876565 -78.860446 -70.573768 -62.964039 -55.980237 -49.572990 -43.694804 -38.300517 -33.348308 -28.802298 -24.639493 -20.870833 -17.554085 -14.696894 -12.856068 -12.508127 -12.508127 -12.508127 13611.723541 13611.723541 13611.723541 13624.343456 13760.350953 14014.254042 14119.249505 14074.082153 13935.723244 13662.967390 13276.299756 12914.722000 12547.776805 12026.798602 11433.907439 10927.223011 10325.213398 9572.728349 9101.597488 8919.756692 8517.501245 7842.603537 7316.137947 6923.098896 6363.244936 5763.191552 5202.010317 4547.771094 3673.073204 2475.461928 1144.618503 406.868694 312.621885 375.315626 489.463673 625.225313 625.520336 -106.448012 -527.502280 -301.946302 -41.599023 218.648601 -200.880279 -979.611520 -905.623923 -686.389329 -1112.644910 -1931.779682 -1898.037504 -1746.098341 -1653.465633 -1579.472498 -1517.381403 -1462.247571 -1411.435173 -1362.505456 -1308.259581 -1249.937193 -1194.097522 -1139.989720 -1087.089374 -1035.150352 -984.125097 -934.056942 -885.027806 -837.133100 -790.469040 -745.125827 -701.183889 -658.711933 -617.766139 -578.390121 -540.615360 -504.461938 -469.939421 -437.047802 -405.778438 -376.114957 -348.034108 -321.506550 -296.497586 -272.967847 -250.873926 -230.168975 -210.803262 -192.724696 -175.879323 -160.211783 -145.665743 -132.184297 -119.710326 -108.186835 -97.557252 -87.765688 -78.757171 -70.477836 -62.875061 -55.897535 -49.495166 -43.618670 -38.218345 -33.240969 -28.622681 -24.278911 -20.121275 -16.519778 -13.877311 -12.235590 -11.942247 -11.942247 -11.942247 13957.375086 13957.375086 13957.375086 13984.157936 14251.936466 14865.945789 15320.041509 15118.883047 15021.897637 15003.089422 14192.378778 13760.105682 13893.262375 13358.026405 12377.299396 12123.035246 11602.813897 10028.336744 9425.080296 10527.302435 10437.802700 8620.133309 7557.820506 8126.479821 7296.598672 6927.361811 6714.748857 6270.694838 5257.355061 3235.697639 514.106124 -615.631636 -267.080368 157.287528 523.824142 988.958860 1205.573822 -309.262765 -1163.988967 -499.384740 181.270275 944.124590 121.033258 -1474.511001 -1111.098785 -221.075333 -559.431830 -2277.387817 -2421.164400 -2000.527826 -1787.074107 -1649.973154 -1555.722589 -1485.008964 -1428.863619 -1383.145055 -1328.373833 -1258.049640 -1197.006608 -1141.054193 -1087.428171 -1035.194315 -984.042167 -933.913323 -884.850105 -836.932654 -790.251412 -744.894445 -700.941398 -658.460660 -617.508234 -578.127582 -540.350032 -504.195504 -469.673404 -436.783567 -405.517205 -375.857807 -347.781993 -321.260306 -296.257940 -272.735424 -250.649257 -229.952502 -210.595343 -192.525613 -175.689282 -160.030925 -145.494145 -132.021977 -119.557250 -108.042922 -97.422373 -87.639669 -78.639782 -70.368755 -62.773783 -55.803122 -49.405618 -43.529295 -38.117599 -33.099654 -28.364707 -23.693700 -18.509013 -14.614312 -12.592742 -11.372536 -11.148586 -11.148586 -11.148586 -13.843040 -12.091602 -11.162999 -11.037029 -11.037029 -11.037029 -11.982200 -10.980821 -10.351480 -10.265101 -10.265101 -10.265101 -9.724573 -9.382526 -9.100904 -9.061223 -9.061223 -9.061223 -8.190781 -8.063451 -7.953514 -7.937258 -7.937258 -7.937258 -7.004586 -6.961396 -6.925456 -6.920353 -6.920353 -6.920353 -6.029424 -6.019881 -6.014466 -6.014045 -6.014045 -6.014045 -5.201666 -5.205292 -5.211760 -5.213151 -5.213151 -5.213151 -4.488200 -4.496520 -4.507036 -4.509021 -4.509021 -4.509021 -3.869178 -3.878703 -3.890040 -3.892116 -3.892116 -3.892116 -3.330907 -3.340240 -3.351121 -3.353090 -3.353090 -3.353090 -2.862828 -2.871450 -2.881414 -2.883210 -2.883210 -2.883210 -2.456193 -2.463950 -2.472880 -2.474486 -2.474486 -2.474486 -2.103471 -2.110358 -2.118272 -2.119694 -2.119694 -2.119694 -1.798052 -1.804122 -1.811092 -1.812343 -1.812343 -1.812343 -1.534092 -1.539417 -1.545529 -1.546627 -1.546627 -1.546627 -1.306407 -1.311063 -1.316406 -1.317366 -1.317366 -1.317366 -1.110400 -1.114460 -1.119119 -1.119955 -1.119955 -1.119955 -0.942001 -0.945532 -0.949585 -0.950313 -0.950313 -0.950313 -0.797611 -0.800676 -0.804194 -0.804825 -0.804825 -0.804825 -0.674057 -0.676711 -0.679757 -0.680304 -0.680304 -0.680304 -0.568546 -0.570839 -0.573471 -0.573944 -0.573944 -0.573944 -0.478625 -0.480602 -0.482871 -0.483279 -0.483279 -0.483279 -0.402146 -0.403847 -0.405799 -0.406150 -0.406150 -0.406150 -0.337232 -0.338692 -0.340368 -0.340669 -0.340669 -0.340669 -0.282246 -0.283497 -0.284933 -0.285190 -0.285190 -0.285190 -0.235765 -0.236834 -0.238061 -0.238282 -0.238282 -0.238282 -0.196554 -0.197465 -0.198512 -0.198700 -0.198700 -0.198700 -0.163543 -0.164318 -0.165209 -0.165369 -0.165369 -0.165369 -0.135809 -0.136467 -0.137224 -0.137360 -0.137360 -0.137360 -0.112556 -0.113114 -0.113755 -0.113870 -0.113870 -0.113870 -0.093100 -0.093572 -0.094114 -0.094211 -0.094211 -0.094211 -0.076855 -0.077253 -0.077710 -0.077792 -0.077792 -0.077792 -0.063319 -0.063654 -0.064039 -0.064108 -0.064108 -0.064108 -0.052063 -0.052344 -0.052668 -0.052726 -0.052726 -0.052726 -0.042723 -0.042959 -0.043230 -0.043278 -0.043278 -0.043278 -0.034989 -0.035186 -0.035412 -0.035453 -0.035453 -0.035453 -0.028597 -0.028762 -0.028951 -0.028985 -0.028985 -0.028985 -0.023326 -0.023463 -0.023621 -0.023649 -0.023649 -0.023649 -0.018989 -0.019103 -0.019234 -0.019257 -0.019257 -0.019257 -0.015427 -0.015521 -0.015630 -0.015649 -0.015649 -0.015649 -0.012508 -0.012586 -0.012676 -0.012692 -0.012692 -0.012692 -0.010121 -0.010185 -0.010259 -0.010273 -0.010273 -0.010273 -0.008173 -0.008226 -0.008287 -0.008298 -0.008298 -0.008298 -0.006586 -0.006630 -0.006680 -0.006689 -0.006689 -0.006689 -0.005297 -0.005333 -0.005374 -0.005381 -0.005381 -0.005381 -0.004251 -0.004281 -0.004314 -0.004320 -0.004320 -0.004320 -0.003405 -0.003429 -0.003457 -0.003462 -0.003462 -0.003462 -0.002722 -0.002742 -0.002764 -0.002768 -0.002768 -0.002768 -0.002171 -0.002187 -0.002205 -0.002209 -0.002209 -0.002209 -0.001729 -0.001742 -0.001756 -0.001759 -0.001759 -0.001759 -0.001373 -0.001384 -0.001396 -0.001398 -0.001398 -0.001398 -0.001089 -0.001097 -0.001107 -0.001109 -0.001109 -0.001109 -0.000862 -0.000868 -0.000876 -0.000877 -0.000877 -0.000877 -0.000680 -0.000686 -0.000692 -0.000693 -0.000693 -0.000693 -0.000536 -0.000540 -0.000545 -0.000546 -0.000546 -0.000546 -0.000422 -0.000425 -0.000429 -0.000430 -0.000430 -0.000430 -0.000331 -0.000334 -0.000337 -0.000337 -0.000337 -0.000337 -0.000259 -0.000261 -0.000264 -0.000264 -0.000264 -0.000264 -0.000202 -0.000204 -0.000206 -0.000207 -0.000207 -0.000207 -0.000158 -0.000159 -0.000161 -0.000161 -0.000161 -0.000161 -0.000123 -0.000124 -0.000125 -0.000126 -0.000126 -0.000126 -0.000095 -0.000096 -0.000097 -0.000098 -0.000098 -0.000098 -0.000074 -0.000075 -0.000075 -0.000076 -0.000076 -0.000076 -0.000057 -0.000058 -0.000058 -0.000058 -0.000058 -0.000058 -0.000044 -0.000045 -0.000045 -0.000045 -0.000045 -0.000045 -0.000034 -0.000034 -0.000035 -0.000035 -0.000035 -0.000035 -0.000026 -0.000026 -0.000027 -0.000027 -0.000027 -0.000027 -0.000020 -0.000020 -0.000020 -0.000021 -0.000021 -0.000021 -0.000015 -0.000016 -0.000016 -0.000016 -0.000016 -0.000016 -0.000012 -0.000012 -0.000012 -0.000012 -0.000012 -0.000012 -0.000009 -0.000009 -0.000009 -0.000009 -0.000009 -0.000009 -0.000007 -0.000007 -0.000007 -0.000007 -0.000007 -0.000007 -0.000005 -0.000005 -0.000005 -0.000005 -0.000005 -0.000005 -0.000004 -0.000004 -0.000004 -0.000004 -0.000004 -0.000004 -0.000003 -0.000003 -0.000003 -0.000003 -0.000003 -0.000003 -0.000002 -0.000002 -0.000002 -0.000002 -0.000002 -0.000002 -0.000002 -0.000002 -0.000002 -0.000002 -0.000002 -0.000002 -0.000001 -0.000001 -0.000001 -0.000001 -0.000001 -0.000001 -0.000001 -0.000001 -0.000001 -0.000001 -0.000001 -0.000001 -0.000001 -0.000001 -0.000001 -0.000001 -0.000001 -0.000001 -0.000001 -0.000001 -0.000001 -0.000001 -0.000001 -0.000001 -0.000000 -0.000000 -0.000000 -0.000000 -0.000000 -0.000000 -0.000000 -0.000000 -0.000000 -0.000000 -0.000000 -0.000000 -0.000000 -0.000000 -0.000000 -0.000000 -0.000000 -0.000000 -0.000000 -0.000000 -0.000000 -0.000000 -0.000000 -0.000000 -0.000000 -0.000000 -0.000000 -0.000000 -0.000000 -0.000000 -0.000000 -0.000000 -0.000000 -0.000000 -0.000000 -0.000000 -0.000000 -0.000000 -0.000000 -0.000000 -0.000000 -0.000000 -0.000000 -0.000000 -0.000000 -0.000000 -0.000000 -0.000000 -0.000000 -0.000000 -0.000000 -0.000000 -0.000000 -0.000000 -0.000000 -0.000000 -0.000000 -0.000000 -0.000000 -0.000000 -0.000000 -0.000000 -0.000000 -0.000000 -0.000000 -0.000000 -0.000000 -0.000000 -0.000000 -0.000000 -0.000000 -0.000000 -0.000000 -0.000000 -0.000000 -0.000000 -0.000000 -0.000000 -0.000000 -0.000000 -0.000000 -0.000000 -0.000000 -0.000000 -0.000000 -0.000000 -0.000000 -0.000000 -0.000000 -0.000000 0.000000 0.000000 0.000000 0.000000 0.000000 0.000000 0.000000 0.000000 0.000000 0.000000 0.000000 0.000000 0.000000 0.000000 0.000000 0.000000 0.000000 0.000000 0.000000 0.000000 0.000000 0.000000 0.000000 0.000000 0.000000 0.000000 0.000000 0.000000 0.000000 0.000000 0.000000 0.000000 0.000000 0.000000 0.000000 0.000000 0.000000 0.000000 0.000000 0.000000 0.000000 0.000000 0.000000 0.000000 0.000000 0.000000 0.000000 0.000000 0.000000 0.000000 0.000000 0.000000 0.000000 0.000000 0.000000 0.000000 0.000000 0.000000 0.000000 0.000000 0.000000 0.000000 0.000000 0.000000 0.000000 0.000000 0.000001 0.000001 0.000001 0.000001 0.000001 0.000001 0.000001 0.000001 0.000001 0.000001 0.000001 0.000001 0.000001 0.000001 0.000001 0.000001 0.000001 0.000001 0.000002 0.000002 0.000002 0.000002 0.000002 0.000002 0.000003 0.000003 0.000003 0.000003 0.000003 0.000003 0.000004 0.000004 0.000004 0.000004 0.000004 0.000004 0.000006 0.000006 0.000006 0.000006 0.000006 0.000006 0.000008 0.000008 0.000008 0.000008 0.000008 0.000008 0.000012 0.000012 0.000012 0.000012 0.000012 0.000012 0.000017 0.000017 0.000017 0.000017 0.000017 0.000017 0.000024 0.000024 0.000025 0.000025 0.000025 0.000025 0.000034 0.000034 0.000035 0.000035 0.000035 0.000035 0.000048 0.000048 0.000049 0.000049 0.000049 0.000049 0.000067 0.000068 0.000069 0.000069 0.000069 0.000069 0.000093 0.000095 0.000096 0.000097 0.000097 0.000097 0.000129 0.000131 0.000133 0.000134 0.000134 0.000134 0.000178 0.000181 0.000184 0.000184 0.000184 0.000184 0.000245 0.000248 0.000252 0.000252 0.000252 0.000252 0.000334 0.000338 0.000343 0.000344 0.000344 0.000344 0.000452 0.000458 0.000464 0.000465 0.000465 0.000465 0.000609 0.000617 0.000625 0.000627 0.000627 0.000627 0.000817 0.000826 0.000837 0.000839 0.000839 0.000839 0.001088 0.001100 0.001113 0.001116 0.001116 0.001116 0.001440 0.001455 0.001473 0.001476 0.001476 0.001476 0.001896 0.001915 0.001937 0.001941 0.001941 0.001941 0.002481 0.002504 0.002532 0.002536 0.002536 0.002536 0.003226 0.003256 0.003289 0.003295 0.003295 0.003295 0.004170 0.004206 0.004247 0.004254 0.004254 0.004254 0.005357 0.005401 0.005451 0.005459 0.005459 0.005459 0.006839 0.006892 0.006951 0.006962 0.006962 0.006962 0.008676 0.008738 0.008810 0.008823 0.008823 0.008823 0.010936 0.011009 0.011094 0.011109 0.011109 0.011109 0.013695 0.013781 0.013879 0.013897 0.013897 0.013897 0.017037 0.017137 0.017251 0.017271 0.017271 0.017271 0.021054 0.021167 0.021297 0.021321 0.021321 0.021321 0.025840 0.025968 0.026115 0.026141 0.026141 0.026141 0.031494 0.031636 0.031799 0.031828 0.031828 0.031828 0.038112 0.038268 0.038447 0.038479 0.038479 0.038479 0.045786 0.045954 0.046145 0.046180 0.046180 0.046180 0.054594 0.054771 0.054972 0.055008 0.055008 0.055008 0.064595 0.064776 0.064983 0.065020 0.065020 0.065020 0.075819 0.075999 0.076204 0.076241 0.076241 0.076241 0.088257 0.088428 0.088623 0.088658 0.088658 0.088658 0.101848 0.102001 0.102175 0.102206 0.102206 0.102206 0.116467 0.116591 0.116730 0.116755 0.116755 0.116755 0.131910 0.131990 0.132079 0.132095 0.132095 0.132095 0.147877 0.147897 0.147917 0.147920 0.147920 0.147920 0.163960 0.163902 0.163832 0.163819 0.163819 0.163819 0.179626 0.179469 0.179286 0.179253 0.179253 0.179253 0.194205 0.193927 0.193606 0.193548 0.193548 0.193548 0.206877 0.206456 0.205970 0.205882 0.205882 0.205882 0.216668 0.216079 0.215402 0.215280 0.215280 0.215280 0.222443 0.221663 0.220767 0.220606 0.220606 0.220606 0.222908 0.221916 0.220776 0.220572 0.220572 0.220572 0.216625 0.215400 0.213994 0.213742 0.213742 0.213742 0.202020 0.200546 0.198857 0.198554 0.198554 0.198554 0.177414 0.175681 0.173696 0.173340 0.173340 0.173340 0.141056 0.139059 0.136773 0.136363 0.136363 0.136363 0.091166 0.088909 0.086326 0.085863 0.085863 0.085863 0.025987 0.023482 0.020616 0.020103 0.020103 0.020103 -0.056152 -0.058883 -0.062006 -0.062565 -0.062565 -0.062565 -0.156771 -0.159695 -0.163036 -0.163634 -0.163634 -0.163634 -0.277162 -0.280233 -0.283741 -0.284370 -0.284370 -0.284370 -0.418313 -0.421475 -0.425086 -0.425732 -0.425732 -0.425732 -0.580830 -0.584016 -0.587653 -0.588303 -0.588303 -0.588303 -0.764863 -0.767995 -0.771569 -0.772208 -0.772208 -0.772208 -0.970038 -0.973029 -0.976441 -0.977051 -0.977051 -0.977051 -1.195394 -1.198152 -1.201295 -1.201858 -1.201858 -1.201858 -1.439344 -1.441771 -1.444535 -1.445029 -1.445029 -1.445029 -1.699642 -1.701639 -1.703912 -1.704318 -1.704318 -1.704318 -1.973379 -1.974851 -1.976523 -1.976822 -1.976822 -1.976822 -2.256999 -2.257855 -2.258823 -2.258996 -2.258996 -2.258996 -2.546337 -2.546496 -2.546669 -2.546699 -2.546699 -2.546699 -2.836685 -2.836082 -2.835383 -2.835257 -2.835257 -2.835257 -3.122890 -3.121474 -3.119847 -3.119555 -3.119555 -3.119555 -3.399460 -3.397201 -3.394614 -3.394150 -3.394150 -3.394150 -3.660708 -3.657600 -3.654044 -3.653406 -3.653406 -3.653406 -3.900902 -3.896962 -3.892458 -3.891650 -3.891650 -3.891650 -4.114429 -4.109702 -4.104298 -4.103330 -4.103330 -4.103330 -4.295969 -4.290523 -4.284300 -4.283186 -4.283186 -4.283186 -4.440663 -4.434593 -4.427658 -4.426416 -4.426416 -4.426416 -4.544271 -4.537697 -4.530185 -4.528840 -4.528840 -4.528840 -4.603317 -4.596383 -4.588457 -4.587037 -4.587037 -4.587037 -4.615202 -4.608083 -4.599936 -4.598476 -4.598476 -4.598476 -4.578273 -4.571192 -4.563065 -4.561606 -4.561606 -4.561606 -4.491835 -4.485108 -4.477329 -4.475926 -4.475926 -4.475926 -4.356046 -4.350198 -4.343287 -4.342026 -4.342026 -4.342026 -4.171614 -4.167651 -4.162579 -4.161616 -4.161616 -4.161616 -3.939055 -3.939135 -3.937921 -3.937574 -3.937574 -3.937574 -3.656998 -3.666054 -3.673157 -3.674110 -3.674110 -3.674110 -3.318117 -3.348153 -3.373508 -3.377202 -3.377202 -3.377202 -2.898625 -2.982021 -3.046640 -3.055624 -3.055624 -3.055624 -2.321945 -2.571688 -2.703748 -2.721306 -2.721306 -2.721306 15903.914740 15903.914740 15903.914740 15911.844974 15930.765391 14661.232119 13194.995080 13150.273576 13314.990204 12499.506144 12746.377847 13411.768243 13425.130798 13415.536848 12348.687862 10354.021599 11157.757693 10002.883197 9550.349379 9399.310416 9798.823644 9969.531296 7261.353000 5197.112975 5116.530695 4478.361621 4602.613568 5466.753004 5028.392754 5003.718515 5289.765547 6032.600589 8121.866816 1299.871476 -3761.213368 -996.259313 233.336920 839.368444 1181.091683 1511.378576 2153.039216 4141.182911 2351.016850 -3512.276256 -2898.726970 -1413.860335 -872.063101 -627.728253 -512.709493 -453.142295 -417.377762 -391.577194 -369.680317 -349.082631 -328.738210 -308.304865 -287.750568 -267.170917 -246.705685 -226.502257 -206.700909 -187.429752 -168.803538 -150.923684 -133.878462 -117.743008 -102.579150 -88.435138 -75.345414 -63.330509 -52.397168 -42.538729 -33.735800 -25.957213 -19.161233 -13.296989 -8.306056 -4.124144 -0.682819 2.088796 4.262398 5.909011 7.097648 7.894171 8.360357 8.553174 8.524280 8.319714 7.979786 7.539127 7.026884 6.467038 5.878803 5.277104 4.673084 4.074634 3.486914 2.912833 2.353450 1.808211 1.274835 0.748452 0.218903 -0.336289 -0.988883 -1.648233 -2.083763 -2.329564 -2.373597 -2.373597 -2.373597 15984.863881 15984.863881 15984.863881 15946.837411 15476.196448 14209.374328 13938.899207 14186.737720 13875.184935 13504.630442 13445.755192 13401.235800 13375.399525 13139.675797 12391.677906 11526.610631 11264.581880 10737.791939 10337.424713 9969.337149 9799.027451 9399.678626 8422.146795 7415.536257 6802.616137 6274.595562 5871.544641 5669.599603 5453.669857 5240.369494 5106.375756 5065.387241 4674.127079 2983.710568 1305.904329 916.889419 1085.828801 1225.697236 1307.129060 1400.469270 1588.919634 1775.932186 1006.773432 -725.016948 -984.551255 -796.971894 -608.847598 -510.411490 -458.891508 -428.150993 -405.689583 -386.076884 -367.071545 -347.833288 -328.136032 -308.018476 -287.625091 -267.133131 -246.720212 -226.551375 -206.775217 -187.523811 -168.913801 -151.047492 -134.013547 -117.887258 -102.730491 -88.591502 -75.504734 -63.490744 -52.556338 -42.694956 -33.887348 -26.102526 -19.298968 -13.426036 -8.425555 -4.233491 -0.781659 2.000576 4.184693 5.841517 7.039893 7.845547 8.320149 8.520594 8.498494 8.299873 7.965049 7.528683 7.019969 6.462948 5.876907 5.276849 4.674001 4.076348 3.489157 2.915481 2.356609 1.812430 1.281613 0.761478 0.247325 -0.268587 -0.787608 -1.282128 -1.703284 -1.972996 -2.021927 -2.021927 -2.021927 16057.945376 16057.945376 16057.945376 16035.419856 15788.123388 15237.945990 14859.629717 14531.946387 14178.554055 13857.563449 13595.525940 13345.391529 13063.499524 12727.047757 12311.961562 11859.910899 11433.670148 11000.374018 10561.286906 10124.947780 9686.777899 9214.240559 8665.321102 8074.303949 7487.741886 6918.329860 6404.443431 5973.646336 5605.659419 5277.189153 4962.838625 4614.470051 4129.304520 3420.756763 2663.671376 2114.451007 1777.469181 1566.020796 1421.999578 1313.688953 1205.546438 1019.009809 646.542040 166.850224 -163.070018 -316.260410 -379.235641 -403.257861 -409.056376 -404.878036 -394.760963 -380.908692 -364.603385 -346.640325 -327.554830 -307.739669 -287.503518 -267.099685 -246.741110 -226.609380 -206.860945 -187.631656 -169.039974 -151.189069 -134.167986 -118.052162 -102.903502 -88.770257 -75.686874 -63.673939 -52.738328 -42.873596 -34.060657 -26.268727 -19.456525 -13.573682 -8.562306 -4.358652 -0.894825 1.899539 4.095667 5.764159 6.973668 7.789763 8.273991 8.483164 8.468841 8.277030 7.948055 7.516611 7.011947 6.458172 5.874653 5.276484 4.674987 4.078250 3.491656 2.918407 2.360024 1.816818 1.288344 0.773872 0.272982 -0.213285 -0.680110 -1.116657 -1.514503 -1.781408 -1.832689 -1.832689 -1.832689 16069.999248 16069.999248 16069.999248 16050.212473 15839.193533 15360.463212 14950.050748 14579.187423 14222.140309 13896.215826 13607.615784 13326.664685 13025.039513 12685.802308 12298.960534 11881.329696 11457.379323 11023.075012 10578.829554 10129.197332 9673.759248 9198.609031 8683.927669 8132.059756 7560.917538 6994.681785 6470.726211 6016.593017 5627.930253 5280.916157 4942.718094 4565.031312 4081.557742 3464.694224 2809.475778 2262.594519 1875.950541 1617.441058 1439.781655 1301.623132 1157.450814 946.254397 622.289803 240.878060 -65.722879 -250.739394 -344.718962 -386.699103 -401.281019 -401.232519 -393.043925 -380.093690 -364.212154 -346.449926 -327.461336 -307.694538 -287.483905 -267.094657 -246.745275 -226.619950 -206.876376 -187.651002 -169.062585 -151.214430 -134.195649 -118.081698 -102.934489 -88.802274 -75.719498 -63.706753 -52.770927 -42.905597 -34.091705 -26.298504 -19.484756 -13.600139 -8.586814 -4.381087 -0.915113 1.881423 4.079701 5.750283 6.961786 7.779751 8.265704 8.476440 8.463512 8.272921 7.944996 7.514435 7.010498 6.457305 5.874240 5.276410 4.675157 4.078584 3.492096 2.918921 2.360616 1.817561 1.289449 0.775846 0.276933 -0.205351 -0.665902 -1.096012 -1.491185 -1.756174 -1.807178 -1.807178 -1.807178 16069.999248 16069.999248 16069.999248 16050.212473 15839.193533 15360.463212 14950.050748 14579.187423 14222.140309 13896.215826 13607.615784 13326.664685 13025.039513 12685.802308 12298.960534 11881.329696 11457.379323 11023.075012 10578.829554 10129.197332 9673.759248 9198.609031 8683.927669 8132.059756 7560.917538 6994.681785 6470.726211 6016.593017 5627.930253 5280.916157 4942.718094 4565.031312 4081.557742 3464.694224 2809.475778 2262.594519 1875.950541 1617.441058 1439.781655 1301.623132 1157.450814 946.254397 622.289803 240.878060 -65.722879 -250.739394 -344.718962 -386.699103 -401.281019 -401.232519 -393.043925 -380.093690 -364.212154 -346.449926 -327.461336 -307.694538 -287.483905 -267.094657 -246.745275 -226.619950 -206.876376 -187.651002 -169.062585 -151.214430 -134.195649 -118.081698 -102.934489 -88.802274 -75.719498 -63.706753 -52.770927 -42.905597 -34.091705 -26.298504 -19.484756 -13.600139 -8.586814 -4.381087 -0.915113 1.881423 4.079701 5.750283 6.961786 7.779751 8.265704 8.476440 8.463512 8.272921 7.944996 7.514435 7.010498 6.457305 5.874240 5.276410 4.675157 4.078584 3.492096 2.918921 2.360616 1.817561 1.289449 0.775846 0.276933 -0.205351 -0.665902 -1.096012 -1.491185 -1.756174 -1.807178 -1.807178 -1.807178 16069.999248 16069.999248 16069.999248 16050.212473 15839.193533 15360.463212 14950.050748 14579.187423 14222.140309 13896.215826 13607.615784 13326.664685 13025.039513 12685.802308 12298.960534 11881.329696 11457.379323 11023.075012 10578.829554 10129.197332 9673.759248 9198.609031 8683.927669 8132.059756 7560.917538 6994.681785 6470.726211 6016.593017 5627.930253 5280.916157 4942.718094 4565.031312 4081.557742 3464.694224 2809.475778 2262.594519 1875.950541 1617.441058 1439.781655 1301.623132 1157.450814 946.254397 622.289803 240.878060 -65.722879 -250.739394 -344.718962 -386.699103 -401.281019 -401.232519 -393.043925 -380.093690 -364.212154 -346.449926 -327.461336 -307.694538 -287.483905 -267.094657 -246.745275 -226.619950 -206.876376 -187.651002 -169.062585 -151.214430 -134.195649 -118.081698 -102.934489 -88.802274 -75.719498 -63.706753 -52.770927 -42.905597 -34.091705 -26.298504 -19.484756 -13.600139 -8.586814 -4.381087 -0.915113 1.881423 4.079701 5.750283 6.961786 7.779751 8.265704 8.476440 8.463512 8.272921 7.944996 7.514435 7.010498 6.457305 5.874240 5.276410 4.675157 4.078584 3.492096 2.918921 2.360616 1.817561 1.289449 0.775846 0.276933 -0.205351 -0.665902 -1.096012 -1.491185 -1.756174 -1.807178 -1.807178 -1.807178 14009.039090 14009.039090 14009.039090 14036.311064 14297.075406 15006.531339 15624.273297 15388.498759 15249.945348 15274.864278 14437.514725 14008.256781 14195.454683 13660.247171 12618.585638 12391.803725 11955.406682 10197.209445 9546.706778 10774.454654 10758.135527 8692.226680 7253.364233 8083.630725 7341.519108 6964.220383 6983.724738 6743.306737 5910.210114 3823.523291 492.510971 -703.407988 -322.770333 140.506442 526.549954 1016.763136 1243.929822 -325.496037 -1206.335171 -515.005059 198.414741 995.221301 153.195672 -1496.762820 -1123.764666 -153.511301 -381.860221 -2175.909409 -2435.412470 -2019.757350 -1796.795619 -1655.079336 -1558.496731 -1486.659607 -1430.192025 -1385.206368 14373.447963 14373.447963 14373.447963 14371.413957 14353.535763 15751.828170 15612.026386 19137.885699 15491.953898 16773.795025 18802.065142 18582.364085 18767.273137 20936.098397 17013.300476 18405.183509 18153.402341 17719.884004 17829.567947 19031.883547 17225.522767 18931.154125 17786.739358 17826.819481 17686.512552 19032.815123 19804.306847 15708.637675 18102.802197 16957.510580 17840.692830 17123.476478 17847.240962 18528.194178 18346.836363 18796.346706 17070.333499 20598.779094 18362.337352 17428.550071 18936.755397 16715.764480 18524.612141 17542.996042 17607.137244 18821.643707 17815.686074 17186.437282 17985.955851 17176.378373 18336.104511 18472.630596 18488.311690 3054.492644 -285.263052 -2270.464432 14921.536584 14921.536584 14921.536584 14896.974078 14726.515890 16572.030586 16638.080654 17184.301883 14809.223301 16329.436814 18557.126454 17245.561454 16267.904879 18174.004254 15132.892803 17122.788633 16952.212470 17181.569782 16599.096142 18215.349096 17748.245233 18824.271741 18217.353870 17538.399397 19233.537011 19767.857146 18107.406947 18419.229690 17397.246685 17289.829790 17244.694595 17293.020771 18964.653578 18308.713408 19033.287802 18505.967497 20143.911301 19052.933172 18971.168309 19425.101642 19792.046071 18645.195906 19137.269630 18271.497508 18265.335787 18301.603705 18161.508451 19433.554831 17788.982679 19496.245816 17815.673121 18069.497237 8640.187034 14753.632016 -1042.175664 -74.768869 15356.500900 15356.500900 15356.500900 15352.694683 15299.489223 16917.355792 15274.509393 17583.890881 17345.448563 16834.159948 15273.139790 17821.913884 17610.459077 18873.909395 15920.787093 18090.586150 18431.413994 18438.681206 18511.573650 18701.994671 19746.672893 17885.464965 18194.147455 18592.462889 19965.872294 17814.183708 17639.964096 16784.677424 18779.447740 17921.737518 19075.764377 18423.756795 19165.692764 19919.703438 17813.227564 19316.793219 19723.139669 19461.276082 19699.697398 19156.872709 18092.373670 19893.967