<VTKFile type="PolyData">
<PolyData>
<Piece NumberOfPoints="8632" NumberOfVerts="8632" NumberOfLines="0" NumberOfStrips="0" NumberOfPolys="0">
<PointData>
<DataArray type="Float64" Name="Pressure" format="ascii">
 14688.949748 14688.949748 14688.949748 14683.396033 14617.370896 14431.434039 14202.326695 13961.541977 13714.172349 13380.771924 12916.803957 12403.174337 11913.051899 11414.494090 10895.731373 10381.606205 9833.831803 9208.669048 8516.065389 7804.365046 7097.451703 6390.010092 5669.771527 4965.905903 4316.599155 3726.684495 3235.111490 2868.077206 2521.680439 2137.227166 1724.691935 1330.596512 1068.233423 933.947944 812.166494 640.999246 486.055433 383.291527 266.988646 131.259190 58.013766 39.348886 -10.404087 -101.595019 -148.982939 -132.444590 -123.158173 -199.141677 -345.814021 -477.615250 -598.005630 -760.690622 -931.136160 -1027.812854 -1041.648201 -1002.886332 -935.749962 -856.277890 -774.695628 -696.218552 -622.917266 -555.369540 -493.496573 -436.963553 -385.367426 -338.323028 -295.497221 -256.614927 -221.450319 -189.811507 -161.524149 -136.417321 -114.313356 -95.022142 -78.339526 -64.048979 -51.925510 -41.740795 -33.268660 -26.290247 -20.598423 -16.001181 -12.323961 -9.410920 -7.125280 -5.348911 -3.981334 -2.938316 -2.150215 -1.560223 -1.122588 -0.800924 -0.566640 -0.397537 -0.276572 -0.190814 -0.130552 -0.088579 -0.059598 -0.039757 -0.026286 -0.017207 -0.011126 -0.007068 -0.004362 -0.002552 -0.001301 -0.000599 -0.000475 -0.000475 -0.000475 14688.949748 14688.949748 14688.949748 14683.396033 14617.370896 14431.434039 14202.326695 13961.541977 13714.172349 13380.771924 12916.803957 12403.174337 11913.051899 11414.494090 10895.731373 10381.606205 9833.831803 9208.669048 8516.065389 7804.365046 7097.451703 6390.010092 5669.771527 4965.905903 4316.599155 3726.684495 3235.111490 2868.077206 2521.680439 2137.227166 1724.691935 1330.596512 1068.233423 933.947944 812.166494 640.999246 486.055433 383.291527 266.988646 131.259190 58.013766 39.348886 -10.404087 -101.595019 -148.982939 -132.444590 -123.158173 -199.141677 -345.814021 -477.615250 -598.005630 -760.690622 -931.136160 -1027.812854 -1041.648201 -1002.886332 -935.749962 -856.277890 -774.695628 -696.218552 -622.917266 -555.369540 -493.496573 -436.963553 -385.367426 -338.323028 -295.497221 -256.614927 -221.450319 -189.811507 -161.524149 -136.417321 -114.313356 -95.022142 -78.339526 -64.048979 -51.925510 -41.740795 -33.268660 -26.290247 -20.598423 -16.001181 -12.323961 -9.410920 -7.125280 -5.348911 -3.981334 -2.938316 -2.150215 -1.560223 -1.122588 -0.800924 -0.566640 -0.397537 -0.276572 -0.190814 -0.130552 -0.088579 -0.059598 -0.039757 -0.026286 -0.017207 -0.011126 -0.007068 -0.004362 -0.002552 -0.001301 -0.000599 -0.000475 -0.000475 -0.000475 14688.949748 14688.949748 14688.949748 14683.396033 14617.370896 14431.434039 14202.326695 13961.541977 13714.172349 13380.771924 12916.803957 12403.174337 11913.051899 11414.494090 10895.731373 10381.606205 9833.831803 9208.669048 8516.065389 7804.365046 7097.451703 6390.010092 5669.771527 4965.905903 4316.599155 3726.684495 3235.111490 2868.077206 2521.680439 2137.227166 1724.691935 1330.596512 1068.233423 933.947944 812.166494 640.999246 486.055433 383.291527 266.988646 131.259190 58.013766 39.348886 -10.404087 -101.595019 -148.982939 -132.444590 -123.158173 -199.141677 -345.814021 -477.615250 -598.005630 -760.690622 -931.136160 -1027.812854 -1041.648201 -1002.886332 -935.749962 -856.277890 -774.695628 -696.218552 -622.917266 -555.369540 -493.496573 -436.963553 -385.367426 -338.323028 -295.497221 -256.614927 -221.450319 -189.811507 -161.524149 -136.417321 -114.313356 -95.022142 -78.339526 -64.048979 -51.925510 -41.740795 -33.268660 -26.290247 -20.598423 -16.001181 -12.323961 -9.410920 -7.125280 -5.348911 -3.981334 -2.938316 -2.150215 -1.560223 -1.122588 -0.800924 -0.566640 -0.397537 -0.276572 -0.190814 -0.130552 -0.088579 -0.059598 -0.039757 -0.026286 -0.017207 -0.011126 -0.007068 -0.004362 -0.002552 -0.001301 -0.000599 -0.000475 -0.000475 -0.000475 14699.710937 14699.710937 14699.710937 14694.329885 14628.557625 14431.967881 14176.331410 13939.828873 13745.574463 13430.280802 12925.524369 12410.694903 11969.298386 11475.582708 10945.662401 10443.945861 9892.868401 9241.580338 8516.074029 7798.877215 7097.405414 6401.498194 5662.140592 4930.834607 4269.623651 3654.491901 3141.329411 2816.911430 2482.599744 2091.308615 1673.935183 1240.437340 987.654987 904.500652 811.826129 618.699148 453.884552 381.310106 269.163023 102.900615 34.947544 49.232445 4.447679 -120.746076 -173.349350 -130.706310 -94.578821 -170.475840 -359.031277 -483.703911 -585.539656 -774.873020 -970.814543 -1058.428822 -1061.549361 -1014.642485 -942.033072 -859.173610 -775.858232 -696.637582 -623.033922 -555.368418 -493.452515 -436.906164 -385.307906 -338.265200 -295.442073 -256.562479 -221.400380 -189.763952 -161.478988 -136.374679 -114.273426 -94.985134 -78.305617 -64.018290 -51.898085 -41.716599 -33.247583 -26.272117 -20.583020 -15.988253 -12.313238 -9.402129 -7.118154 -5.343200 -3.976807 -2.934765 -2.147461 -1.558108 -1.120981 -0.799715 -0.565740 -0.396873 -0.276088 -0.190464 -0.130302 -0.088401 -0.059473 -0.039670 -0.026225 -0.017165 -0.011095 -0.007041 -0.004334 -0.002525 -0.001285 -0.000591 -0.000468 -0.000468 -0.000468 14828.298597 14828.298597 14828.298597 14829.699518 14796.749496 14427.361636 13693.948716 13592.715387 14400.804385 14116.080931 12725.131958 12341.521583 12799.937908 12233.022467 11405.424471 11166.701352 10563.661004 9475.447442 8303.173181 7559.404577 6862.215986 6378.317726 5334.260030 4282.973590 3737.511904 2792.890951 1747.218436 2320.814582 1961.958463 1566.326770 1291.181205 -86.539720 -67.246030 616.590756 1024.490105 270.984072 -100.624681 483.430037 475.789379 -433.271422 -325.525098 286.425567 357.365585 -501.216904 -560.627260 -118.056898 385.529032 247.894071 -647.890155 -632.994080 -338.862384 -897.472794 -1580.724676 -1450.031102 -1284.782953 -1147.458184 -1012.322260 -888.267031 -787.299774 -700.696872 -624.141153 -555.332804 -493.002446 -436.328892 -384.711763 -337.686899 -294.890852 -256.038296 -220.901240 -189.288583 -161.027492 -135.948337 -113.874195 -94.615116 -77.966615 -63.711507 -51.623963 -41.474780 -33.036967 -26.090977 -20.429149 -15.859124 -12.206156 -9.314358 -7.047029 -5.286206 -3.931636 -2.899350 -2.119988 -1.537019 -1.104958 -0.787666 -0.556770 -0.390261 -0.271262 -0.186976 -0.127805 -0.086632 -0.058230 -0.038805 -0.025627 -0.016748 -0.010789 -0.006769 -0.003994 -0.002169 -0.001087 -0.000500 -0.000401 -0.000401 -0.000401 15054.454120 15054.454120 15054.454120 15074.318374 15340.640877 14389.760642 11379.933600 12617.946432 18571.961070 16450.951183 8904.510935 11780.657839 16648.592522 11696.365419 11148.204920 12124.540767 11405.613574 9058.777326 6854.088074 6684.411394 4858.416391 6172.895336 3178.764895 1868.557015 3059.559450 1980.608247 -1574.904986 3332.557186 474.941417 -607.123057 1513.376625 -2777.361139 -1992.555554 542.973322 2136.404019 -406.316127 -1544.274029 1010.186619 1158.774309 -1656.789111 -1135.812444 872.670681 1062.372984 -1293.116482 -1293.043457 -95.512729 1136.550862 813.851107 -1181.076616 -894.536527 235.860055 -678.387955 -2243.026436 -1971.780058 -1555.386930 -1327.962570 -1131.400204 -936.150962 -805.147404 -707.171417 -626.133812 -555.586107 -492.609611 -435.721552 -384.054865 -337.038775 -294.268592 -255.444497 -220.334743 -188.748460 -160.514148 -135.463411 -113.420042 -94.194213 -77.581069 -63.362712 -51.312427 -41.200088 -32.797847 -25.885440 -20.254662 -15.712790 -12.084887 -9.215028 -6.966595 -5.221799 -3.880629 -2.859390 -2.089014 -1.513261 -1.086924 -0.774115 -0.546690 -0.382838 -0.265850 -0.183068 -0.125010 -0.084652 -0.056841 -0.037839 -0.024957 -0.016279 -0.010432 -0.006405 -0.003322 -0.001540 -0.000787 -0.000388 -0.000318 -0.000318 -0.000318 -0.001260 -0.000641 -0.000346 -0.000308 -0.000308 -0.000308 -0.000775 -0.000457 -0.000270 -0.000245 -0.000245 -0.000245 -0.000347 -0.000252 -0.000176 -0.000165 -0.000165 -0.000165 -0.000170 -0.000138 -0.000110 -0.000106 -0.000106 -0.000106 -0.000088 -0.000077 -0.000068 -0.000066 -0.000066 -0.000066 -0.000047 -0.000044 -0.000041 -0.000040 -0.000040 -0.000040 -0.000026 -0.000025 -0.000024 -0.000024 -0.000024 -0.000024 -0.000015 -0.000014 -0.000014 -0.000014 -0.000014 -0.000014 -0.000008 -0.000008 -0.000008 -0.000008 -0.000008 -0.000008 -0.000005 -0.000005 -0.000005 -0.000005 -0.000005 -0.000005 -0.000003 -0.000003 -0.000003 -0.000003 -0.000003 -0.000003 -0.000001 -0.000002 -0.000002 -0.000002 -0.000002 -0.000002 -0.000001 -0.000001 -0.000001 -0.000001 -0.000001 -0.000001 -0.000000 -0.000001 -0.000001 -0.000001 -0.000001 -0.000001 -0.000000 -0.000000 -0.000000 -0.000000 -0.000000 -0.000000 -0.000000 -0.000000 -0.000000 -0.000000 -0.000000 -0.000000 -0.000000 -0.000000 -0.000000 -0.000000 -0.000000 -0.000000 -0.000000 -0.000000 -0.000000 -0.000000 -0.000000 -0.000000 -0.000000 -0.000000 -0.000000 -0.000000 -0.000000 -0.000000 -0.000000 -0.000000 -0.000000 -0.000000 -0.000000 -0.000000 -0.000000 -0.000000 -0.000000 -0.000000 -0.000000 -0.000000 -0.000000 -0.000000 -0.000000 -0.000000 -0.000000 -0.000000 -0.000000 -0.000000 -0.000000 -0.000000 -0.000000 -0.000000 -0.000000 -0.000000 -0.000000 -0.000000 -0.000000 -0.000000 -0.000000 -0.000000 -0.000000 -0.000000 -0.000000 -0.000000 -0.000000 -0.000000 -0.000000 -0.000000 -0.000000 -0.000000 -0.000000 -0.000000 -0.000000 -0.000000 -0.000000 -0.000000 -0.000000 -0.000000 -0.000000 -0.000000 -0.000000 -0.000000 -0.000000 -0.000000 -0.000000 -0.000000 -0.000000 -0.000000 -0.000000 -0.000000 -0.000000 -0.000000 -0.000000 -0.000000 -0.000000 -0.000000 -0.000000 -0.000000 -0.000000 -0.000000 -0.000000 -0.000000 -0.000000 -0.000000 -0.000000 -0.000000 -0.000000 -0.000000 -0.000000 -0.000000 -0.000000 -0.000000 -0.000000 -0.000000 -0.000000 -0.000000 -0.000000 -0.000000 -0.000000 -0.000000 -0.000000 -0.000000 -0.000000 -0.000000 -0.000000 -0.000000 -0.000000 -0.000000 -0.000000 -0.000000 -0.000000 -0.000000 -0.000000 -0.000000 -0.000000 -0.000000 -0.000000 -0.000000 -0.000000 -0.000000 -0.000000 -0.000000 -0.000000 -0.000000 -0.000000 -0.000000 -0.000000 -0.000000 -0.000000 -0.000000 -0.000000 -0.000000 -0.000000 -0.000000 -0.000000 -0.000000 -0.000000 -0.000000 -0.000000 -0.000000 -0.000000 -0.000000 -0.000000 -0.000000 -0.000000 -0.000000 -0.000000 -0.000000 -0.000000 -0.000000 -0.000000 -0.000000 -0.000000 -0.000000 -0.000000 -0.000000 -0.000000 -0.000000 -0.000000 -0.000000 -0.000000 -0.000000 -0.000000 -0.000000 -0.000000 -0.000000 -0.000000 -0.000000 -0.000000 -0.000000 -0.000000 -0.000000 -0.000000 -0.000000 -0.000000 -0.000000 -0.000000 -0.000000 -0.000000 -0.000000 -0.000000 -0.000000 -0.000000 -0.000000 -0.000000 -0.000000 -0.000000 -0.000000 -0.000000 -0.000000 -0.000000 0.000000 0.000000 0.000000 -0.000000 -0.000000 -0.000000 0.000000 0.000000 0.000000 -0.000000 -0.000000 -0.000000 0.000000 0.000000 0.000000 -0.000000 -0.000000 -0.000000 0.000000 0.000000 0.000000 -0.000000 -0.000000 -0.000000 0.000000 0.000000 0.000000 -0.000000 -0.000000 -0.000000 0.000000 0.000000 0.000000 -0.000000 -0.000000 -0.000000 0.000000 0.000000 0.000000 -0.000000 -0.000000 -0.000000 0.000000 0.000000 0.000000 -0.000000 -0.000000 -0.000000 0.000000 0.000000 0.000000 -0.000000 -0.000000 -0.000000 0.000000 0.000000 0.000000 -0.000000 -0.000000 -0.000000 0.000000 0.000000 0.000000 -0.000000 -0.000000 -0.000000 0.000000 0.000000 0.000000 -0.000000 -0.000000 -0.000000 0.000000 0.000000 0.000000 -0.000000 -0.000000 -0.000000 0.000000 0.000000 0.000000 -0.000000 -0.000000 -0.000000 0.000000 0.000000 0.000000 -0.000000 -0.000000 -0.000000 0.000000 0.000000 0.000000 -0.000000 -0.000000 -0.000000 0.000000 0.000000 0.000000 -0.000000 -0.000000 -0.000000 0.000000 0.000000 0.000000 -0.000000 -0.000000 -0.000000 0.000000 0.000000 0.000000 -0.000000 -0.000000 -0.000000 0.000000 0.000000 0.000000 -0.000000 -0.000000 -0.000000 0.000000 0.000000 0.000000 -0.000000 -0.000000 -0.000000 0.000000 0.000000 0.000000 -0.000000 -0.000000 -0.000000 0.000000 0.000000 0.000000 -0.000000 -0.000000 -0.000000 0.000000 0.000000 0.000000 -0.000000 -0.000000 -0.000000 0.000000 0.000000 0.000000 -0.000000 -0.000000 -0.000000 0.000000 0.000000 0.000000 -0.000000 -0.000000 -0.000000 0.000000 0.000000 0.000000 -0.000000 -0.000000 -0.000000 0.000000 0.000000 0.000000 -0.000000 -0.000000 -0.000000 0.000000 0.000000 0.000000 -0.000000 -0.000000 -0.000000 0.000000 0.000000 0.000000 -0.000000 -0.000000 -0.000000 0.000000 0.000000 0.000000 -0.000000 -0.000000 -0.000000 0.000000 0.000000 0.000000 -0.000000 -0.000000 -0.000000 0.000000 0.000000 0.000000 -0.000000 -0.000000 -0.000000 0.000000 0.000000 0.000000 -0.000000 -0.000000 -0.000000 0.000000 0.000000 0.000000 -0.000000 -0.000000 -0.000000 0.000000 0.000000 0.000000 -0.000000 -0.000000 -0.000000 0.000000 0.000000 0.000000 -0.000000 -0.000000 -0.000000 0.000000 0.000000 0.000000 -0.000000 -0.000000 -0.000000 0.000000 0.000000 0.000000 -0.000000 -0.000000 -0.000000 0.000000 0.000000 0.000000 -0.000000 -0.000000 -0.000000 0.000000 0.000000 0.000000 -0.000000 -0.000000 -0.000000 0.000000 0.000000 0.000000 -0.000000 -0.000000 -0.000000 0.000000 0.000000 0.000000 -0.000000 -0.000000 -0.000000 0.000000 0.000000 0.000000 -0.000000 -0.000000 -0.000000 0.000000 0.000000 0.000000 -0.000000 -0.000000 -0.000000 0.000000 0.000000 0.000000 -0.000000 -0.000000 -0.000000 0.000000 0.000000 0.000000 -0.000000 -0.000000 -0.000000 0.000000 0.000000 0.000000 -0.000000 -0.000000 -0.000000 0.000000 0.000000 0.000000 -0.000000 -0.000000 -0.000000 0.000000 0.000000 0.000000 -0.000000 -0.000000 -0.000000 0.000000 0.000000 0.000000 -0.000000 -0.000000 -0.000000 0.000000 0.000000 0.000000 -0.000000 -0.000000 -0.000000 0.000000 0.000000 0.000000 -0.000000 -0.000000 -0.000000 0.000000 0.000000 0.000000 -0.000000 -0.000000 -0.000000 0.000000 0.000000 0.000000 -0.000000 -0.000000 -0.000000 0.000000 0.000000 0.000000 -0.000000 -0.000000 -0.000000 0.000000 0.000000 0.000000 -0.000000 -0.000000 -0.000000 0.000000 0.000000 0.000000 -0.000000 -0.000000 -0.000000 0.000000 0.000000 0.000000 -0.000000 -0.000000 -0.000000 0.000000 0.000000 0.000000 -0.000000 -0.000000 -0.000000 0.000000 0.000000 0.000000 -0.000000 -0.000000 -0.000000 0.000000 0.000000 0.000000 -0.000000 -0.000000 -0.000000 0.000000 0.000000 0.000000 -0.000000 -0.000000 -0.000000 0.000000 0.000000 0.000000 -0.000000 -0.000000 -0.000000 0.000000 0.000000 0.000000 -0.000000 -0.000000 -0.000000 0.000000 0.000000 0.000000 -0.000000 -0.000000 -0.000000 0.000000 0.000000 0.000000 -0.000000 -0.000000 -0.000000 0.000000 0.000000 0.000000 -0.000000 -0.000000 -0.000000 0.000000 0.000000 0.000000 -0.000000 -0.000000 -0.000000 0.000000 0.000000 0.000000 -0.000000 -0.000000 -0.000000 0.000000 0.000000 0.000000 -0.000000 -0.000000 -0.000000 0.000000 0.000000 0.000000 -0.000000 -0.000000 -0.000000 0.000000 0.000000 0.000000 -0.000000 -0.000000 -0.000000 0.000000 0.000000 0.000000 -0.000000 -0.000000 -0.000000 0.000000 0.000000 0.000000 -0.000000 -0.000000 -0.000000 0.000000 0.000000 0.000000 -0.000000 -0.000000 -0.000000 0.000000 0.000000 0.000000 -0.000000 -0.000000 -0.000000 0.000000 0.000000 0.000000 -0.000000 -0.000000 -0.000000 0.000000 0.000000 0.000000 -0.000000 -0.000000 -0.000000 0.000000 0.000000 0.000000 -0.000000 -0.000000 -0.000000 0.000000 0.000000 0.000000 -0.000000 -0.000000 -0.000000 0.000000 0.000000 0.000000 -0.000000 -0.000000 -0.000000 0.000000 0.000000 0.000000 -0.000000 -0.000000 -0.000000 0.000000 0.000000 0.000000 -0.000000 -0.000000 -0.000000 0.000000 0.000000 0.000000 -0.000000 -0.000000 -0.000000 0.000000 0.000000 0.000000 -0.000000 -0.000000 -0.000000 0.000000 0.000000 0.000000 -0.000000 -0.000000 -0.000000 0.000000 0.000000 0.000000 -0.000000 -0.000000 -0.000000 0.000000 0.000000 0.000000 -0.000000 -0.000000 -0.000000 0.000000 0.000000 0.000000 -0.000000 -0.000000 -0.000000 0.000000 0.000000 0.000000 -0.000000 -0.000000 -0.000000 0.000000 0.000000 0.000000 -0.000000 -0.000000 -0.000000 0.000000 0.000000 0.000000 -0.000000 -0.000000 -0.000000 0.000000 0.000000 0.000000 -0.000000 -0.000000 -0.000000 0.000000 0.000000 0.000000 -0.000000 -0.000000 -0.000000 0.000000 0.000000 0.000000 -0.000000 -0.000000 -0.000000 0.000000 0.000000 0.000000 -0.000000 -0.000000 -0.000000 0.000000 0.000000 0.000000 -0.000000 -0.000000 -0.000000 0.000000 0.000000 0.000000 -0.000000 -0.000000 -0.000000 0.000000 0.000000 0.000000 -0.000000 -0.000000 -0.000000 0.000000 0.000000 0.000000 -0.000000 -0.000000 -0.000000 0.000000 0.000000 0.000000 -0.000000 -0.000000 -0.000000 0.000000 0.000000 0.000000 -0.000000 -0.000000 -0.000000 0.000000 0.000000 0.000000 -0.000000 -0.000000 -0.000000 0.000000 0.000000 0.000000 -0.000000 -0.000000 -0.000000 0.000000 0.000000 0.000000 -0.000000 -0.000000 -0.000000 0.000000 0.000000 0.000000 -0.000000 -0.000000 -0.000000 0.000000 0.000000 0.000000 -0.000000 -0.000000 -0.000000 0.000000 0.000000 0.000000 -0.000000 -0.000000 -0.000000 0.000000 0.000000 0.000000 -0.000000 -0.000000 -0.000000 0.000000 0.000000 0.000000 -0.000000 -0.000000 -0.000000 -0.000000 -0.000000 -0.000000 -0.000000 -0.000000 -0.000000 -0.000000 -0.000000 -0.000000 -0.000000 -0.000000 -0.000000 -0.000000 -0.000000 -0.000000 -0.000000 -0.000000 -0.000000 -0.000000 -0.000000 -0.000000 -0.000000 -0.000000 -0.000000 -0.000000 -0.000000 -0.000000 0.000000 -0.000000 -0.000000 -0.000000 -0.000000 -0.000000 0.000000 -0.000000 -0.000000 -0.000000 -0.000000 -0.000000 0.000000 -0.000000 -0.000000 -0.000000 -0.000000 -0.000000 0.000000 -0.000000 -0.000000 -0.000000 -0.000000 -0.000000 0.000000 -0.000000 -0.000000 -0.000000 -0.000000 -0.000000 0.000000 -0.000000 -0.000000 -0.000000 -0.000000 -0.000000 0.000000 -0.000000 -0.000000 -0.000000 -0.000000 -0.000000 0.000000 -0.000000 -0.000000 -0.000000 -0.000000 -0.000000 0.000000 -0.000000 -0.000000 -0.000000 -0.000000 -0.000000 0.000000 -0.000000 -0.000000 -0.000000 -0.000000 -0.000000 0.000000 -0.000000 -0.000000 -0.000000 -0.000000 -0.000000 0.000000 -0.000000 -0.000000 -0.000000 -0.000000 -0.000000 0.000000 -0.000000 -0.000000 -0.000000 -0.000000 -0.000000 0.000000 -0.000000 -0.000000 -0.000000 -0.000000 -0.000000 0.000000 -0.000000 -0.000000 -0.000000 -0.000000 -0.000000 0.000000 -0.000000 -0.000000 -0.000000 -0.000000 -0.000000 0.000000 -0.000000 -0.000000 -0.000000 -0.000000 -0.000000 0.000000 -0.000000 -0.000000 -0.000000 -0.000000 -0.000000 0.000000 -0.000000 -0.000000 -0.000000 -0.000000 -0.000000 0.000000 -0.000000 -0.000000 -0.000000 -0.000000 -0.000000 0.000000 -0.000000 -0.000000 -0.000000 -0.000000 -0.000000 0.000000 -0.000000 -0.000000 -0.000000 -0.000000 -0.000000 0.000000 -0.000000 -0.000000 -0.000000 -0.000000 -0.000000 0.000000 -0.000000 -0.000000 -0.000000 -0.000000 -0.000000 0.000000 -0.000000 -0.000000 -0.000000 -0.000000 -0.000000 0.000000 -0.000000 -0.000000 -0.000000 -0.000000 -0.000000 0.000000 -0.000000 -0.000000 -0.000000 -0.000000 -0.000000 0.000000 -0.000000 -0.000000 -0.000000 -0.000000 -0.000000 0.000000 -0.000000 -0.000000 -0.000000 -0.000000 -0.000000 0.000000 -0.000000 -0.000000 -0.000000 -0.000000 -0.000000 0.000000 -0.000000 -0.000000 -0.000000 -0.000000 -0.000000 0.000000 -0.000000 -0.000000 -0.000000 -0.000000 -0.000000 0.000000 -0.000000 -0.000000 -0.000000 -0.000000 -0.000000 0.000000 -0.000000 -0.000000 -0.000000 -0.000000 -0.000000 -0.000000 -0.000000 0.000000 0.000000 0.000000 0.000000 12120.592801 12120.592801 12120.592801 12068.286316 11501.708239 11829.743132 13248.840681 13461.073273 13224.892857 13302.124767 12918.914981 11649.210102 10713.943560 10267.561805 10418.186143 8973.204415 7339.276329 6969.682962 6535.039027 5476.305560 4093.903036 3229.763378 2809.936116 1796.077148 437.375157 367.645325 904.770162 1115.780943 1107.201339 1007.158223 874.729971 739.032777 613.336537 502.683344 408.001643 328.347841 262.078773 207.414957 162.676088 126.356332 97.131459 73.843305 55.481038 41.165548 30.137512 21.747711 15.448079 10.782533 7.377227 4.930402 3.202182 2.004749 1.193240 0.657596 0.315481 0.106280 -0.013873 -0.076138 -0.102197 -0.106781 -0.099618 -0.086913 -0.072445 -0.058363 -0.045764 -0.035086 -0.026383 -0.019501 -0.014192 -0.010182 -0.007207 -0.005038 -0.003479 -0.002375 -0.001603 -0.001071 -0.000707 -0.000462 -0.000299 -0.000192 -0.000122 -0.000076 -0.000047 -0.000029 -0.000018 -0.000011 -0.000006 -0.000004 -0.000002 -0.000001 -0.000001 -0.000000 -0.000000 -0.000000 -0.000000 -0.000000 -0.000000 -0.000000 -0.000000 -0.000000 -0.000000 -0.000000 -0.000000 -0.000000 -0.000000 -0.000000 -0.000000 0.000000 -0.000000 -0.000000 -0.000000 11995.382135 11995.382135 11995.382135 11973.002873 11464.184739 10910.743410 11571.050464 12762.704098 12523.576228 11461.338463 10373.396152 9667.650682 9146.589552 8496.796372 8385.394770 7628.137986 6575.477758 6369.073027 5705.402064 4740.073500 3800.951929 3065.037396 2678.072955 2089.492438 1570.968463 1338.306633 1300.877420 1263.699995 1165.794789 1030.728285 884.935973 744.314430 616.808622 505.403852 410.299426 330.324329 263.776693 208.865428 163.907734 127.395504 98.001754 74.565744 56.074589 41.647611 30.524186 22.053847 15.687216 10.966785 7.517213 5.035234 3.279518 2.060901 1.233316 0.685661 0.334715 0.119134 -0.005544 -0.070951 -0.099140 -0.105126 -0.098854 -0.086689 -0.072525 -0.058596 -0.046055 -0.035382 -0.026654 -0.019734 -0.014383 -0.010334 -0.007325 -0.005127 -0.003546 -0.002423 -0.001638 -0.001095 -0.000724 -0.000474 -0.000307 -0.000197 -0.000125 -0.000079 -0.000049 -0.000030 -0.000018 -0.000011 -0.000007 -0.000004 -0.000002 -0.000001 -0.000001 -0.000000 -0.000000 -0.000000 -0.000000 -0.000000 -0.000000 -0.000000 -0.000000 -0.000000 -0.000000 -0.000000 -0.000000 -0.000000 -0.000000 -0.000000 -0.000000 -0.000000 -0.000000 -0.000000 -0.000000 11945.898830 11945.898830 11945.898830 11929.283176 11720.156002 11225.848610 10954.267852 10878.281678 10569.914897 10163.028361 9741.248366 9253.619357 8728.052231 8199.819092 7668.583334 7069.695377 6447.383845 5864.597690 5259.120985 4610.596377 3967.515851 3388.088575 2889.743364 2445.131889 2066.473378 1780.247307 1567.925450 1388.899939 1218.782208 1052.846425 894.904203 749.770823 620.590957 508.461748 412.917897 332.588539 265.725408 210.531112 165.322318 128.589073 99.001455 75.395792 56.756807 42.201975 30.969140 22.406389 15.962829 11.179330 7.678848 5.156400 3.369000 2.125948 1.279802 0.718263 0.357098 0.134123 0.004195 -0.064864 -0.095533 -0.103156 -0.097928 -0.086398 -0.072595 -0.058849 -0.046382 -0.035716 -0.026962 -0.019999 -0.014603 -0.010509 -0.007461 -0.005230 -0.003622 -0.002480 -0.001678 -0.001124 -0.000744 -0.000488 -0.000317 -0.000203 -0.000129 -0.000081 -0.000051 -0.000031 -0.000019 -0.000012 -0.000007 -0.000004 -0.000002 -0.000001 -0.000001 -0.000000 -0.000000 -0.000000 -0.000000 -0.000000 -0.000000 -0.000000 -0.000000 -0.000000 -0.000000 -0.000000 -0.000000 -0.000000 -0.000000 -0.000000 -0.000000 0.000000 0.000000 0.000000 0.000000 11940.202079 11940.202079 11940.202079 11922.696756 11732.752835 11289.639005 10913.730231 10626.493423 10355.204332 10043.011900 9666.314040 9217.175757 8713.477852 8183.415235 7634.287364 7047.163451 6443.109666 5848.995801 5242.380211 4616.538657 4000.924672 3434.233632 2935.191840 2499.077501 2130.760255 1836.808674 1604.155480 1407.270565 1226.913416 1056.321680 896.515006 750.687183 621.248344 509.003618 413.385815 332.994475 266.075201 210.830222 165.576367 128.803437 99.181012 75.544897 56.879384 42.301610 31.049140 22.469801 16.012427 11.217598 7.707966 5.178240 3.385139 2.137688 1.288198 0.724157 0.361149 0.136839 0.005963 -0.063757 -0.094875 -0.102795 -0.097757 -0.086342 -0.072605 -0.058893 -0.046439 -0.035776 -0.027017 -0.020047 -0.014642 -0.010540 -0.007485 -0.005249 -0.003636 -0.002490 -0.001686 -0.001129 -0.000748 -0.000490 -0.000318 -0.000205 -0.000130 -0.000082 -0.000051 -0.000032 -0.000019 -0.000012 -0.000007 -0.000004 -0.000002 -0.000001 -0.000001 -0.000000 -0.000000 -0.000000 -0.000000 -0.000000 -0.000000 -0.000000 -0.000000 -0.000000 -0.000000 -0.000000 -0.000000 -0.000000 -0.000000 -0.000000 0.000000 0.000000 0.000000 0.000000 0.000000 11940.202079 11940.202079 11940.202079 11922.696756 11732.752835 11289.639005 10913.730231 10626.493423 10355.204332 10043.011900 9666.314040 9217.175757 8713.477852 8183.415235 7634.287364 7047.163451 6443.109666 5848.995801 5242.380211 4616.538657 4000.924672 3434.233632 2935.191840 2499.077501 2130.760255 1836.808674 1604.155480 1407.270565 1226.913416 1056.321680 896.515006 750.687183 621.248344 509.003618 413.385815 332.994475 266.075201 210.830222 165.576367 128.803437 99.181012 75.544897 56.879384 42.301610 31.049140 22.469801 16.012427 11.217598 7.707966 5.178240 3.385139 2.137688 1.288198 0.724157 0.361149 0.136839 0.005963 -0.063757 -0.094875 -0.102795 -0.097757 -0.086342 -0.072605 -0.058893 -0.046439 -0.035776 -0.027017 -0.020047 -0.014642 -0.010540 -0.007485 -0.005249 -0.003636 -0.002490 -0.001686 -0.001129 -0.000748 -0.000490 -0.000318 -0.000205 -0.000130 -0.000082 -0.000051 -0.000032 -0.000019 -0.000012 -0.000007 -0.000004 -0.000002 -0.000001 -0.000001 -0.000000 -0.000000 -0.000000 -0.000000 -0.000000 -0.000000 -0.000000 -0.000000 -0.000000 -0.000000 -0.000000 -0.000000 -0.000000 -0.000000 -0.000000 0.000000 0.000000 0.000000 0.000000 0.000000 11940.202079 11940.202079 11940.202079 11922.696756 11732.752835 11289.639005 10913.730231 10626.493423 10355.204332 10043.011900 9666.314040 9217.175757 8713.477852 8183.415235 7634.287364 7047.163451 6443.109666 5848.995801 5242.380211 4616.538657 4000.924672 3434.233632 2935.191840 2499.077501 2130.760255 1836.808674 1604.155480 1407.270565 1226.913416 1056.321680 896.515006 750.687183 621.248344 509.003618 413.385815 332.994475 266.075201 210.830222 165.576367 128.803437 99.181012 75.544897 56.879384 42.301610 31.049140 22.469801 16.012427 11.217598 7.707966 5.178240 3.385139 2.137688 1.288198 0.724157 0.361149 0.136839 0.005963 -0.063757 -0.094875 -0.102795 -0.097757 -0.086342 -0.072605 -0.058893 -0.046439 -0.035776 -0.027017 -0.020047 -0.014642 -0.010540 -0.007485 -0.005249 -0.003636 -0.002490 -0.001686 -0.001129 -0.000748 -0.000490 -0.000318 -0.000205 -0.000130 -0.000082 -0.000051 -0.000032 -0.000019 -0.000012 -0.000007 -0.000004 -0.000002 -0.000001 -0.000001 -0.000000 -0.000000 -0.000000 -0.000000 -0.000000 -0.000000 -0.000000 -0.000000 -0.000000 -0.000000 -0.000000 -0.000000 -0.000000 -0.000000 -0.000000 0.000000 0.000000 0.000000 0.000000 0.000000 15098.400206 15098.400206 15098.400206 15123.622493 15547.016336 14818.684918 11290.848900 12704.932930 19874.498320 16927.748255 8231.755054 11781.110066 17381.198509 11487.096470 10932.118869 12147.762101 11220.656503 8701.562741 6274.692907 6303.628236 3985.637860 6126.285147 2296.393218 1079.890192 2455.840846 1797.523508 -1983.551433 4265.188451 91.364182 -1538.387071 1495.523984 -3171.305354 -2253.731365 594.293960 2386.925739 -490.252025 -1828.694117 1108.246375 1274.129454 -1828.113150 -1251.911249 952.096767 1140.319541 -1392.711093 -1379.144950 -94.090541 1195.942095 853.539046 -1224.323413 -916.063415 307.279494 -568.906838 -2230.142512 -2003.450164 -1575.814175 -1343.895851 15494.085399 15494.085399 15494.085399 15661.694942 16442.881555 17334.474996 17255.261209 16107.342031 18030.720530 17825.798633 16793.754832 16393.153139 15743.051218 18631.332353 17054.734045 13405.949340 16891.285080 17069.354486 16005.917279 14776.881935 15332.624964 14334.878718 17293.872685 24515.111885 18736.533437 18028.903995 19461.715386 17326.651405 14313.300186 16085.840477 22971.359691 17519.106111 15558.263800 18651.209161 16470.762567 18151.173834 19959.989981 17633.047921 16422.257293 15318.720925 17191.735548 16912.936762 15841.162400 14495.752834 15701.197297 17445.379559 13412.689129 14917.282984 13199.172408 11811.858179 12758.327086 9714.756930 14234.238828 -323.485805 105.423714 -1453.766799 16244.489377 16244.489377 16244.489377 16291.206839 12135.705565 8686.592558 18344.141938 19940.684900 16110.544994 16981.789109 17950.632896 19448.942384 19033.805567 17959.199955 16704.961312 16716.219230 21519.825082 18617.783711 17418.776186 18660.408448 18397.258649 18646.186647 15043.874525 15253.071688 16890.310604 15699.778648 16067.793177 20210.267656 17662.681166 16434.765501 15409.415833 14920.106480 12948.065102 19437.187908 13454.870386 16408.324889 14494.009646 14454.068725 15575.635285 10286.206618 10494.316674 9401.931846 12524.977288 12333.234566 11458.692289 11941.583036 12308.698048 14302.157342 10082.992035 10394.814946 6606.179445 6163.765238 1107.429914 2471.966006 86.056306 144.247506 16887.992080 16887.992080 16887.992080 16962.779578 14677.422801 14003.561350 19690.124021 22879.047026 19466.845831 18053.471689 19638.232109 17194.348424 17311.549766 20981.601025 17668.467485 16580.572293 18318.962571 20042.108324 18462.923920 18980.435546 16969.275844 16590.271676 16215.185672 18470.281206 14090.051879 17386.068749 16098.845619 18854.000213 17003.587962 15459.101084 12333.329040 15089.785409 15002.810608 13562.676599 11594.856746 11243.188983 9182.531535 12122.431194 15009.629398 10628.640021 9682.247239 12500.172758 7468.359956 12806.695854 11041.451818 7812.700415 8159.086494 9544.325498 5633.173610 10203.111646 2866.425395 7624.761919 -1678.581130 -95.139387 779.035814 -1474.868646 17131.725391 17131.725391 17131.725391 17481.205558 19550.345268 17386.245033 18817.390128 19214.653084 15101.755155 19869.381554 18723.998240 17601.890554 17705.508501 18526.045586 20664.450704 19269.605001 21247.091254 19601.872815 18864.231896 18452.675915 18321.378088 18528.985170 15991.039813 19436.289785 18050.821194 18680.309110 15328.440852 15168.871605 12257.898073 14029.439846 13634.585813 13589.157744 11619.302626 13978.625468 12290.966081 10796.988148 9465.743980 11229.531005 11221.913575 11442.576164 8425.943653 7605.744321 10414.011583 9597.294124 6673.900155