<VTKFile type="PolyData">
<PolyData>
<Piece NumberOfPoints="8632" NumberOfVerts="8632" NumberOfLines="0" NumberOfStrips="0" NumberOfPolys="0">
<PointData>
<DataArray type="Float64" Name="Pressure" format="ascii">
 12898.809539 12898.809539 12898.809539 12880.106618 12683.459045 12226.199622 11777.727430 11291.388075 10755.142336 10156.486133 9502.078878 8840.372677 8183.272354 7494.672332 6736.301412 5900.863385 5018.106546 4142.110667 3344.227408 2682.871774 2149.584583 1667.963296 1195.527952 802.444885 564.590496 470.509026 458.309839 457.273924 407.408511 308.414957 240.650252 239.223387 235.519406 167.409877 83.217909 55.324950 44.672135 -15.146076 -82.806615 -86.390643 -58.559496 -80.502729 -155.656044 -196.262021 -173.884275 -148.484312 -201.600684 -349.029293 -507.517594 -644.054374 -808.270434 -1000.472448 -1137.948509 -1186.887312 -1172.458672 -1122.721709 -1054.192001 -977.065202 -898.116331 -820.980521 -747.266675 -677.634894 -612.322381 -551.377618 -494.758670 -442.374270 -394.101643 -349.795147 -309.291441 -272.413399 -238.973531 -208.777121 -181.625082 -157.316484 -135.650744 -116.429469 -99.458011 -84.546767 -71.512272 -60.178148 -50.375921 -41.945727 -34.736912 -28.608524 -23.429674 -19.079771 -15.448609 -12.436307 -9.953118 -7.919085 -6.263601 -4.924852 -3.849198 -2.990497 -2.309393 -1.772610 -1.352243 -1.025087 -0.771993 -0.577283 -0.428212 -0.314495 -0.227900 -0.161944 -0.111691 -0.073479 -0.043881 -0.026047 -0.022774 -0.022774 -0.022774 12898.809539 12898.809539 12898.809539 12880.106618 12683.459045 12226.199622 11777.727430 11291.388075 10755.142336 10156.486133 9502.078878 8840.372677 8183.272354 7494.672332 6736.301412 5900.863385 5018.106546 4142.110667 3344.227408 2682.871774 2149.584583 1667.963296 1195.527952 802.444885 564.590496 470.509026 458.309839 457.273924 407.408511 308.414957 240.650252 239.223387 235.519406 167.409877 83.217909 55.324950 44.672135 -15.146076 -82.806615 -86.390643 -58.559496 -80.502729 -155.656044 -196.262021 -173.884275 -148.484312 -201.600684 -349.029293 -507.517594 -644.054374 -808.270434 -1000.472448 -1137.948509 -1186.887312 -1172.458672 -1122.721709 -1054.192001 -977.065202 -898.116331 -820.980521 -747.266675 -677.634894 -612.322381 -551.377618 -494.758670 -442.374270 -394.101643 -349.795147 -309.291441 -272.413399 -238.973531 -208.777121 -181.625082 -157.316484 -135.650744 -116.429469 -99.458011 -84.546767 -71.512272 -60.178148 -50.375921 -41.945727 -34.736912 -28.608524 -23.429674 -19.079771 -15.448609 -12.436307 -9.953118 -7.919085 -6.263601 -4.924852 -3.849198 -2.990497 -2.309393 -1.772610 -1.352243 -1.025087 -0.771993 -0.577283 -0.428212 -0.314495 -0.227900 -0.161944 -0.111691 -0.073479 -0.043881 -0.026047 -0.022774 -0.022774 -0.022774 12898.809539 12898.809539 12898.809539 12880.106618 12683.459045 12226.199622 11777.727430 11291.388075 10755.142336 10156.486133 9502.078878 8840.372677 8183.272354 7494.672332 6736.301412 5900.863385 5018.106546 4142.110667 3344.227408 2682.871774 2149.584583 1667.963296 1195.527952 802.444885 564.590496 470.509026 458.309839 457.273924 407.408511 308.414957 240.650252 239.223387 235.519406 167.409877 83.217909 55.324950 44.672135 -15.146076 -82.806615 -86.390643 -58.559496 -80.502729 -155.656044 -196.262021 -173.884275 -148.484312 -201.600684 -349.029293 -507.517594 -644.054374 -808.270434 -1000.472448 -1137.948509 -1186.887312 -1172.458672 -1122.721709 -1054.192001 -977.065202 -898.116331 -820.980521 -747.266675 -677.634894 -612.322381 -551.377618 -494.758670 -442.374270 -394.101643 -349.795147 -309.291441 -272.413399 -238.973531 -208.777121 -181.625082 -157.316484 -135.650744 -116.429469 -99.458011 -84.546767 -71.512272 -60.178148 -50.375921 -41.945727 -34.736912 -28.608524 -23.429674 -19.079771 -15.448609 -12.436307 -9.953118 -7.919085 -6.263601 -4.924852 -3.849198 -2.990497 -2.309393 -1.772610 -1.352243 -1.025087 -0.771993 -0.577283 -0.428212 -0.314495 -0.227900 -0.161944 -0.111691 -0.073479 -0.043881 -0.026047 -0.022774 -0.022774 -0.022774 12883.416233 12883.416233 12883.416233 12864.853693 12669.472729 12231.575538 11805.840771 11305.120991 10750.480763 10134.204130 9459.228008 8809.452013 8182.782669 7518.990369 6760.432123 5898.214448 4983.139772 4078.791866 3267.635585 2618.887565 2116.815567 1649.538581 1149.524610 733.218321 507.522660 439.540285 453.530155 473.984213 424.429754 294.760852 214.426185 239.307507 258.517209 170.083830 57.262107 46.165862 61.380757 -14.463241 -108.733893 -98.551861 -40.936834 -59.795699 -171.115957 -219.303857 -174.807922 -121.674589 -160.167347 -350.301595 -516.370503 -636.227152 -808.964433 -1043.247786 -1170.442315 -1209.478886 -1185.590914 -1130.496044 -1058.442336 -979.053301 -898.918504 -821.269011 -747.343688 -677.627040 -612.281250 -551.324132 -494.701380 -442.316757 -394.045476 -349.741064 -309.239827 -272.364467 -238.927405 -208.733865 -181.584716 -157.278997 -135.616097 -116.397603 -99.428850 -84.520219 -71.488233 -60.156503 -50.356546 -41.928489 -34.721672 -28.595138 -23.417996 -19.069652 -15.439901 -12.428868 -9.946807 -7.913771 -6.259157 -4.921164 -3.846160 -2.988012 -2.307375 -1.770984 -1.350942 -1.024053 -0.771177 -0.576642 -0.427707 -0.314081 -0.227518 -0.161496 -0.111093 -0.072818 -0.043437 -0.025772 -0.022545 -0.022545 -0.022545 12708.454291 12708.454291 12708.454291 12683.161443 12482.915136 12348.499892 12233.653821 11332.817977 10457.081413 9606.860103 8676.052384 8260.304697 8086.601265 7783.528662 7004.990181 5763.227427 4435.864280 3214.266445 2277.457352 1839.738353 1799.138407 1596.300748 571.815824 -180.200297 -169.122455 95.603939 418.350954 725.245120 776.268565 34.437030 -241.970613 257.385180 696.958484 229.721325 -439.632608 -89.840988 454.417101 37.224664 -606.632452 -276.263354 274.678043 346.069481 -485.600888 -594.338689 -197.106538 271.800866 419.292626 -452.459804 -755.918458 -481.199551 -740.805764 -1613.907249 -1661.417902 -1462.454074 -1330.274285 -1218.745457 -1106.647456 -999.130205 -906.832085 -824.066342 -748.073517 -677.531765 -611.863235 -550.786645 -494.127515 -441.741321 -393.483756 -349.200307 -308.723801 -271.875295 -238.466300 -208.301458 -181.181214 -156.904280 -135.269783 -116.079098 -99.137386 -84.254880 -71.247979 -59.940185 -50.162920 -41.756230 -34.569389 -28.461391 -23.301315 -18.968556 -15.352919 -12.354558 -9.883778 -7.860695 -6.214788 -4.884342 -3.815825 -2.963204 -2.287236 -1.754754 -1.337960 -1.013744 -0.763046 -0.570257 -0.422670 -0.309962 -0.223703 -0.156880 -0.103714 -0.064081 -0.037950 -0.022724 -0.020079 -0.020079 -0.020079 12444.739592 12444.739592 12444.739592 12393.511502 12074.741777 12659.883912 13809.220025 10301.759435 8546.172281 7894.387085 6195.929627 7091.350896 7511.177424 8224.437567 7443.977361 4861.718605 3096.669772 1359.646064 456.701642 660.542760 1640.909470 2250.069657 -377.484725 -1937.231727 -1067.771351 -315.608320 397.508656 1281.449964 1751.794952 -501.054630 -1305.018002 333.499135 2002.732563 431.794063 -1880.204428 -389.130847 1502.653520 158.081191 -1750.837251 -673.701520 893.157014 1064.068280 -1129.797669 -1278.687683 -238.321516 825.848522 1124.122258 -755.775546 -1197.202208 -152.097139 -260.622777 -2036.463439 -2270.925789 -1766.045680 -1504.428056 -1339.524890 -1189.866418 -1032.540639 -919.191790 -828.525655 -749.404447 -677.622402 -611.467114 -550.206948 -493.487422 -441.091872 -392.846917 -348.586147 -308.137341 -271.319235 -237.942131 -207.809935 -180.722585 -156.478406 -134.876226 -115.717179 -98.806228 -83.953439 -70.975070 -59.694500 -49.943041 -41.560649 -34.396524 -28.309601 -23.168925 -18.853880 -15.254282 -12.270319 -9.812350 -7.800569 -6.164543 -4.842661 -3.781501 -2.935145 -2.264468 -1.736414 -1.323295 -1.002103 -0.753863 -0.563036 -0.416939 -0.305175 -0.218974 -0.150139 -0.088368 -0.048252 -0.029466 -0.018788 -0.016872 -0.016872 -0.016872 -0.041366 -0.025515 -0.017516 -0.016456 -0.016456 -0.016456 -0.028268 -0.019751 -0.014544 -0.013843 -0.013843 -0.013843 -0.015523 -0.012793 -0.010562 -0.010245 -0.010245 -0.010245 -0.009315 -0.008338 -0.007490 -0.007364 -0.007364 -0.007364 -0.005865 -0.005526 -0.005234 -0.005191 -0.005191 -0.005191 -0.003805 -0.003702 -0.003620 -0.003610 -0.003610 -0.003610 -0.002511 -0.002492 -0.002484 -0.002484 -0.002484 -0.002484 -0.001671 -0.001678 -0.001692 -0.001695 -0.001695 -0.001695 -0.001114 -0.001127 -0.001145 -0.001149 -0.001149 -0.001149 -0.000742 -0.000755 -0.000770 -0.000773 -0.000773 -0.000773 -0.000493 -0.000503 -0.000515 -0.000517 -0.000517 -0.000517 -0.000326 -0.000334 -0.000342 -0.000344 -0.000344 -0.000344 -0.000215 -0.000220 -0.000226 -0.000227 -0.000227 -0.000227 -0.000141 -0.000144 -0.000148 -0.000149 -0.000149 -0.000149 -0.000092 -0.000094 -0.000097 -0.000097 -0.000097 -0.000097 -0.000059 -0.000061 -0.000063 -0.000063 -0.000063 -0.000063 -0.000038 -0.000039 -0.000041 -0.000041 -0.000041 -0.000041 -0.000025 -0.000025 -0.000026 -0.000026 -0.000026 -0.000026 -0.000016 -0.000016 -0.000017 -0.000017 -0.000017 -0.000017 -0.000010 -0.000010 -0.000011 -0.000011 -0.000011 -0.000011 -0.000006 -0.000006 -0.000007 -0.000007 -0.000007 -0.000007 -0.000004 -0.000004 -0.000004 -0.000004 -0.000004 -0.000004 -0.000002 -0.000003 -0.000003 -0.000003 -0.000003 -0.000003 -0.000002 -0.000002 -0.000002 -0.000002 -0.000002 -0.000002 -0.000001 -0.000001 -0.000001 -0.000001 -0.000001 -0.000001 -0.000001 -0.000001 -0.000001 -0.000001 -0.000001 -0.000001 -0.000000 -0.000000 -0.000000 -0.000000 -0.000000 -0.000000 -0.000000 -0.000000 -0.000000 -0.000000 -0.000000 -0.000000 -0.000000 -0.000000 -0.000000 -0.000000 -0.000000 -0.000000 -0.000000 -0.000000 -0.000000 -0.000000 -0.000000 -0.000000 -0.000000 -0.000000 -0.000000 -0.000000 -0.000000 -0.000000 -0.000000 -0.000000 -0.000000 -0.000000 -0.000000 -0.000000 -0.000000 -0.000000 -0.000000 -0.000000 -0.000000 -0.000000 -0.000000 -0.000000 -0.000000 -0.000000 -0.000000 -0.000000 -0.000000 -0.000000 -0.000000 -0.000000 -0.000000 -0.000000 -0.000000 -0.000000 -0.000000 -0.000000 -0.000000 -0.000000 -0.000000 -0.000000 -0.000000 -0.000000 -0.000000 -0.000000 -0.000000 -0.000000 -0.000000 -0.000000 -0.000000 -0.000000 -0.000000 -0.000000 -0.000000 -0.000000 -0.000000 -0.000000 -0.000000 -0.000000 -0.000000 -0.000000 -0.000000 -0.000000 -0.000000 -0.000000 -0.000000 -0.000000 -0.000000 -0.000000 -0.000000 -0.000000 -0.000000 -0.000000 -0.000000 -0.000000 -0.000000 -0.000000 -0.000000 -0.000000 -0.000000 -0.000000 -0.000000 -0.000000 -0.000000 -0.000000 -0.000000 -0.000000 -0.000000 -0.000000 -0.000000 -0.000000 -0.000000 -0.000000 -0.000000 -0.000000 -0.000000 -0.000000 -0.000000 -0.000000 -0.000000 -0.000000 -0.000000 -0.000000 -0.000000 -0.000000 -0.000000 -0.000000 -0.000000 -0.000000 -0.000000 -0.000000 -0.000000 -0.000000 -0.000000 -0.000000 -0.000000 -0.000000 -0.000000 -0.000000 -0.000000 -0.000000 -0.000000 -0.000000 -0.000000 -0.000000 -0.000000 0.000000 0.000000 0.000000 -0.000000 -0.000000 -0.000000 0.000000 0.000000 0.000000 -0.000000 -0.000000 -0.000000 0.000000 0.000000 0.000000 -0.000000 -0.000000 -0.000000 0.000000 0.000000 0.000000 -0.000000 -0.000000 -0.000000 0.000000 0.000000 0.000000 -0.000000 -0.000000 -0.000000 0.000000 0.000000 0.000000 -0.000000 -0.000000 -0.000000 0.000000 0.000000 0.000000 -0.000000 -0.000000 -0.000000 0.000000 0.000000 0.000000 -0.000000 -0.000000 -0.000000 0.000000 0.000000 0.000000 -0.000000 -0.000000 -0.000000 0.000000 0.000000 0.000000 -0.000000 -0.000000 -0.000000 0.000000 0.000000 0.000000 -0.000000 -0.000000 -0.000000 0.000000 0.000000 0.000000 -0.000000 -0.000000 -0.000000 0.000000 0.000000 0.000000 -0.000000 -0.000000 -0.000000 0.000000 0.000000 0.000000 -0.000000 -0.000000 -0.000000 0.000000 0.000000 0.000000 -0.000000 -0.000000 -0.000000 0.000000 0.000000 0.000000 -0.000000 -0.000000 -0.000000 0.000000 0.000000 0.000000 -0.000000 -0.000000 -0.000000 0.000000 0.000000 0.000000 -0.000000 -0.000000 -0.000000 0.000000 0.000000 0.000000 -0.000000 -0.000000 -0.000000 0.000000 0.000000 0.000000 -0.000000 -0.000000 -0.000000 0.000000 0.000000 0.000000 -0.000000 -0.000000 -0.000000 0.000000 0.000000 0.000000 -0.000000 -0.000000 -0.000000 0.000000 0.000000 0.000000 -0.000000 -0.000000 -0.000000 0.000000 0.000000 0.000000 -0.000000 -0.000000 -0.000000 0.000000 0.000000 0.000000 -0.000000 -0.000000 -0.000000 0.000000 0.000000 0.000000 -0.000000 -0.000000 -0.000000 0.000000 0.000000 0.000000 -0.000000 -0.000000 -0.000000 0.000000 0.000000 0.000000 -0.000000 -0.000000 -0.000000 0.000000 0.000000 0.000000 -0.000000 -0.000000 -0.000000 0.000000 0.000000 0.000000 -0.000000 -0.000000 -0.000000 0.000000 0.000000 0.000000 -0.000000 -0.000000 -0.000000 0.000000 0.000000 0.000000 -0.000000 -0.000000 -0.000000 0.000000 0.000000 0.000000 -0.000000 -0.000000 -0.000000 0.000000 0.000000 0.000000 -0.000000 -0.000000 -0.000000 0.000000 0.000000 0.000000 -0.000000 -0.000000 -0.000000 0.000000 0.000000 0.000000 -0.000000 -0.000000 -0.000000 0.000000 0.000000 0.000000 -0.000000 -0.000000 -0.000000 0.000000 0.000000 0.000000 -0.000000 -0.000000 -0.000000 0.000000 0.000000 0.000000 -0.000000 -0.000000 -0.000000 0.000000 0.000000 0.000000 -0.000000 -0.000000 -0.000000 0.000000 0.000000 0.000000 -0.000000 -0.000000 -0.000000 0.000000 0.000000 0.000000 -0.000000 -0.000000 -0.000000 0.000000 0.000000 0.000000 -0.000000 -0.000000 -0.000000 0.000000 0.000000 0.000000 -0.000000 -0.000000 -0.000000 0.000000 0.000000 0.000000 -0.000000 -0.000000 -0.000000 0.000000 0.000000 0.000000 -0.000000 -0.000000 -0.000000 0.000000 0.000000 0.000000 -0.000000 -0.000000 -0.000000 0.000000 0.000000 0.000000 -0.000000 -0.000000 -0.000000 0.000000 0.000000 0.000000 -0.000000 -0.000000 -0.000000 0.000000 0.000000 0.000000 -0.000000 -0.000000 -0.000000 0.000000 0.000000 0.000000 -0.000000 -0.000000 -0.000000 0.000000 0.000000 0.000000 -0.000000 -0.000000 -0.000000 0.000000 0.000000 0.000000 -0.000000 -0.000000 -0.000000 0.000000 0.000000 0.000000 -0.000000 -0.000000 -0.000000 0.000000 0.000000 0.000000 -0.000000 -0.000000 -0.000000 0.000000 0.000000 0.000000 -0.000000 -0.000000 -0.000000 0.000000 0.000000 0.000000 -0.000000 -0.000000 -0.000000 0.000000 0.000000 0.000000 -0.000000 -0.000000 -0.000000 0.000000 0.000000 0.000000 -0.000000 -0.000000 -0.000000 0.000000 0.000000 0.000000 -0.000000 -0.000000 -0.000000 0.000000 0.000000 0.000000 -0.000000 -0.000000 -0.000000 0.000000 0.000000 0.000000 -0.000000 -0.000000 -0.000000 0.000000 0.000000 0.000000 -0.000000 -0.000000 -0.000000 0.000000 0.000000 0.000000 -0.000000 -0.000000 -0.000000 0.000000 0.000000 0.000000 -0.000000 -0.000000 -0.000000 0.000000 0.000000 0.000000 -0.000000 -0.000000 -0.000000 0.000000 0.000000 0.000000 -0.000000 -0.000000 -0.000000 0.000000 0.000000 0.000000 -0.000000 -0.000000 -0.000000 0.000000 0.000000 0.000000 -0.000000 -0.000000 -0.000000 0.000000 0.000000 0.000000 -0.000000 -0.000000 -0.000000 0.000000 0.000000 0.000000 -0.000000 -0.000000 -0.000000 0.000000 0.000000 0.000000 -0.000000 -0.000000 -0.000000 0.000000 0.000000 0.000000 -0.000000 -0.000000 -0.000000 0.000000 0.000000 0.000000 -0.000000 -0.000000 -0.000000 0.000000 0.000000 0.000000 -0.000000 -0.000000 -0.000000 0.000000 0.000000 0.000000 -0.000000 -0.000000 -0.000000 0.000000 0.000000 0.000000 -0.000000 -0.000000 -0.000000 0.000000 0.000000 0.000000 -0.000000 -0.000000 -0.000000 0.000000 0.000000 0.000000 -0.000000 -0.000000 -0.000000 0.000000 0.000000 0.000000 -0.000000 -0.000000 -0.000000 0.000000 0.000000 0.000000 -0.000000 -0.000000 -0.000000 0.000000 0.000000 0.000000 -0.000000 -0.000000 -0.000000 0.000000 0.000000 0.000000 -0.000000 -0.000000 -0.000000 0.000000 0.000000 0.000000 -0.000000 -0.000000 -0.000000 0.000000 0.000000 0.000000 -0.000000 -0.000000 -0.000000 0.000000 0.000000 0.000000 -0.000000 -0.000000 -0.000000 0.000000 0.000000 0.000000 -0.000000 -0.000000 -0.000000 0.000000 0.000000 0.000000 -0.000000 -0.000000 -0.000000 0.000000 0.000000 0.000000 -0.000000 -0.000000 -0.000000 0.000000 0.000000 0.000000 -0.000000 -0.000000 -0.000000 0.000000 0.000000 0.000000 -0.000000 -0.000000 -0.000000 0.000000 0.000000 0.000000 -0.000000 -0.000000 -0.000000 0.000000 0.000000 0.000000 -0.000000 -0.000000 -0.000000 0.000000 0.000000 0.000000 -0.000000 -0.000000 -0.000000 0.000000 0.000000 0.000000 -0.000000 -0.000000 -0.000000 0.000000 0.000000 0.000000 -0.000000 -0.000000 -0.000000 0.000000 0.000000 0.000000 -0.000000 -0.000000 -0.000000 0.000000 0.000000 0.000000 -0.000000 -0.000000 -0.000000 0.000000 0.000000 0.000000 -0.000000 -0.000000 -0.000000 0.000000 0.000000 0.000000 -0.000000 -0.000000 -0.000000 0.000000 0.000000 0.000000 -0.000000 -0.000000 -0.000000 0.000000 0.000000 0.000000 -0.000000 -0.000000 -0.000000 0.000000 0.000000 0.000000 -0.000000 -0.000000 -0.000000 0.000000 0.000000 0.000000 -0.000000 -0.000000 -0.000000 0.000000 0.000000 0.000000 -0.000000 -0.000000 -0.000000 0.000000 0.000000 0.000000 -0.000000 -0.000000 -0.000000 0.000000 0.000000 0.000000 -0.000000 -0.000000 -0.000000 0.000000 0.000000 0.000000 -0.000000 -0.000000 -0.000000 0.000000 0.000000 0.000000 -0.000000 -0.000000 -0.000000 0.000000 0.000000 0.000000 -0.000000 -0.000000 -0.000000 -0.000000 -0.000000 -0.000000 -0.000000 -0.000000 -0.000000 -0.000000 -0.000000 -0.000000 -0.000000 -0.000000 -0.000000 -0.000000 -0.000000 -0.000000 -0.000000 -0.000000 -0.000000 -0.000000 -0.000000 -0.000000 -0.000000 -0.000000 -0.000000 -0.000000 -0.000000 -0.000000 0.000000 -0.000000 -0.000000 -0.000000 -0.000000 -0.000000 0.000000 -0.000000 -0.000000 -0.000000 -0.000000 -0.000000 0.000000 -0.000000 -0.000000 -0.000000 -0.000000 -0.000000 0.000000 -0.000000 -0.000000 -0.000000 -0.000000 -0.000000 0.000000 -0.000000 -0.000000 -0.000000 -0.000000 -0.000000 0.000000 -0.000000 -0.000000 -0.000000 -0.000000 -0.000000 0.000000 -0.000000 -0.000000 -0.000000 -0.000000 -0.000000 0.000000 -0.000000 -0.000000 -0.000000 -0.000000 -0.000000 0.000000 -0.000000 -0.000000 -0.000000 -0.000000 -0.000000 0.000000 -0.000000 -0.000000 -0.000000 -0.000000 -0.000000 0.000000 -0.000000 -0.000000 -0.000000 -0.000000 -0.000000 0.000000 -0.000000 -0.000000 -0.000000 -0.000000 -0.000000 0.000000 -0.000000 -0.000000 -0.000000 -0.000000 -0.000000 0.000000 -0.000000 -0.000000 -0.000000 -0.000000 -0.000000 0.000000 -0.000000 -0.000000 -0.000000 -0.000000 -0.000000 0.000000 -0.000000 -0.000000 -0.000000 -0.000000 -0.000000 0.000000 -0.000000 -0.000000 -0.000000 -0.000000 -0.000000 0.000000 -0.000000 -0.000000 -0.000000 -0.000000 -0.000000 0.000000 -0.000000 -0.000000 -0.000000 -0.000000 -0.000000 0.000000 -0.000000 -0.000000 -0.000000 -0.000000 -0.000000 0.000000 -0.000000 -0.000000 -0.000000 -0.000000 -0.000000 0.000000 -0.000000 -0.000000 -0.000000 -0.000000 -0.000000 0.000000 -0.000000 -0.000000 -0.000000 -0.000000 -0.000000 0.000000 -0.000000 -0.000000 -0.000000 -0.000000 -0.000000 -0.000000 -0.000000 -0.000000 -0.000000 -0.000000 -0.000000 -0.000000 -0.000000 -0.000000 -0.000000 -0.000000 -0.000000 -0.000000 -0.000000 -0.000000 -0.000000 -0.000000 -0.000000 -0.000000 -0.000000 -0.000000 -0.000000 -0.000000 -0.000000 -0.000000 -0.000000 -0.000000 -0.000000 -0.000000 -0.000000 -0.000000 -0.000000 -0.000000 -0.000000 -0.000000 -0.000000 -0.000000 -0.000000 -0.000000 -0.000000 -0.000000 -0.000000 -0.000000 -0.000000 -0.000000 -0.000000 -0.000000 -0.000000 -0.000000 -0.000000 -0.000000 -0.000000 -0.000000 -0.000000 -0.000000 -0.000000 -0.000000 -0.000000 -0.000000 -0.000000 -0.000000 -0.000000 -0.000000 -0.000000 -0.000000 -0.000000 13406.355680 13406.355680 13406.355680 13380.397261 13067.993264 12358.768420 11873.462453 11347.610350 10564.868692 10627.606076 10914.790988 10218.615806 8798.396281 8862.935363 8056.595846 7067.991851 6484.164698 6030.291610 5040.309187 4924.976313 3715.465143 2936.564420 2629.683280 2221.042780 1539.671410 1267.048971 1657.349716 1865.052166 1767.802575 1579.926206 1375.013148 1182.571128 1011.977551 864.001624 736.306625 625.959263 530.371221 447.495551 375.738981 313.815571 260.628526 215.197856 176.624761 144.078163 116.791682 94.063978 75.259075 59.805533 47.194387 36.976141 28.757142 22.195558 16.997129 12.910796 9.724300 7.259840 5.369861 3.933047 2.850592 2.042770 1.445860 1.009409 0.693850 0.468457 0.309597 0.199285 0.123970 0.073556 0.040604 0.019704 0.006967 -0.000360 -0.004199 -0.005863 -0.006236 -0.005895 -0.005207 -0.004397 -0.003592 -0.002860 -0.002230 -0.001709 -0.001289 -0.000959 -0.000705 -0.000512 -0.000368 -0.000262 -0.000185 -0.000129 -0.000090 -0.000062 -0.000042 -0.000028 -0.000019 -0.000013 -0.000008 -0.000005 -0.000004 -0.000002 -0.000001 -0.000001 -0.000001 -0.000000 -0.000000 -0.000000 -0.000000 -0.000000 -0.000000 -0.000000 -0.000000 13137.160852 13137.160852 13137.160852 13114.861249 12822.727668 12015.473022 11858.084053 11831.368704 11001.804733 11078.111363 11110.778690 10289.550648 9207.622417 8989.512463 8158.893529 7376.840149 6797.653582 6193.542779 5495.106881 4939.833849 4161.243337 3545.268018 3133.089288 2794.738020 2427.377884 2195.945529 2090.539731 1977.838394 1799.966651 1588.484563 1377.883307 1184.659509 1014.200538 866.284064 738.480389 627.942678 532.151666 449.088654 377.164658 315.089893 261.763386 216.202831 177.508734 144.850133 117.460945 94.639989 75.751226 60.222945 47.545762 37.269664 29.000421 22.395583 17.160254 13.042730 9.830114 7.343986 5.436200 3.984890 2.890745 2.073586 1.469287 1.027045 0.706993 0.478146 0.316660 0.204371 0.127584 0.076087 0.042348 0.020883 0.007747 0.000141 -0.003888 -0.005679 -0.006135 -0.005847 -0.005191 -0.004399 -0.003604 -0.002876 -0.002247 -0.001724 -0.001302 -0.000970 -0.000714 -0.000519 -0.000374 -0.000266 -0.000188 -0.000132 -0.000091 -0.000063 -0.000043 -0.000029 -0.000019 -0.000013 -0.000009 -0.000006 -0.000004 -0.000002 -0.000002 -0.000001 -0.000001 -0.000000 -0.000000 -0.000000 -0.000000 -0.000000 -0.000000 -0.000000 -0.000000 13000.607209 13000.607209 13000.607209 12987.681223 12841.741081 12450.276459 12146.601827 11804.415301 11360.986066 11002.573426 10614.593078 10122.725922 9572.280008 9029.368454 8447.905200 7827.660965 7194.394482 6553.986187 5914.106067 5288.780638 4678.219875 4124.134700 3650.362061 3239.774829 2878.675651 2572.246084 2310.869993 2067.885140 1828.933807 1597.257499 1381.447087 1187.426369 1017.000736 869.041902 741.045288 630.252214 534.209398 450.922104 378.801664 316.551463 263.064437 217.354924 178.522267 145.735461 118.228694 95.300952 76.316123 60.702198 47.949321 37.606893 29.280025 22.625564 17.347886 13.194551 9.951935 7.440908 5.512651 4.044668 2.937070 2.109158 1.496347 1.047430 0.722195 0.489362 0.324843 0.210269 0.131780 0.079028 0.044378 0.022258 0.008657 0.000728 -0.003522 -0.005462 -0.006015 -0.005789 -0.005171 -0.004400 -0.003616 -0.002893 -0.002265 -0.001741 -0.001318 -0.000983 -0.000724 -0.000528 -0.000380 -0.000271 -0.000192 -0.000134 -0.000093 -0.000064 -0.000044 -0.000030 -0.000020 -0.000013 -0.000009 -0.000006 -0.000004 -0.000002 -0.000002 -0.000001 -0.000001 -0.000000 -0.000000 -0.000000 -0.000000 -0.000000 -0.000000 -0.000000 -0.000000 12982.131249 12982.131249 12982.131249 12969.607402 12835.968307 12514.966595 12167.822225 11783.428035 11393.485451 11015.046210 10606.747942 10133.724918 9612.342588 9069.493717 8493.568639 7884.369366 7253.754755 6612.679991 5973.492754 5348.307504 4749.101983 4201.560555 3721.244982 3302.575429 2936.449357 2618.768229 2338.961110 2080.436066 1833.365937 1598.707222 1382.102513 1187.955042 1017.526363 869.550166 741.512587 630.670140 534.580269 451.251779 379.095633 316.813754 263.297859 217.561614 178.704113 145.894326 118.366482 95.419594 76.417539 60.788253 48.021797 37.667469 29.330260 22.666893 17.381613 13.221848 9.973844 7.458344 5.526408 4.055428 2.945411 2.115566 1.501223 1.051105 0.724936 0.491385 0.326320 0.211334 0.132538 0.079560 0.044745 0.022506 0.008822 0.000834 -0.003456 -0.005423 -0.005994 -0.005778 -0.005167 -0.004400 -0.003618 -0.002896 -0.002268 -0.001744 -0.001320 -0.000985 -0.000726 -0.000529 -0.000381 -0.000272 -0.000192 -0.000135 -0.000094 -0.000064 -0.000044 -0.000030 -0.000020 -0.000013 -0.000009 -0.000006 -0.000004 -0.000002 -0.000002 -0.000001 -0.000001 -0.000000 -0.000000 -0.000000 -0.000000 -0.000000 -0.000000 -0.000000 -0.000000 12982.131249 12982.131249 12982.131249 12969.607402 12835.968307 12514.966595 12167.822225 11783.428035 11393.485451 11015.046210 10606.747942 10133.724918 9612.342588 9069.493717 8493.568639 7884.369366 7253.754755 6612.679991 5973.492754 5348.307504 4749.101983 4201.560555 3721.244982 3302.575429 2936.449357 2618.768229 2338.961110 2080.436066 1833.365937 1598.707222 1382.102513 1187.955042 1017.526363 869.550166 741.512587 630.670140 534.580269 451.251779 379.095633 316.813754 263.297859 217.561614 178.704113 145.894326 118.366482 95.419594 76.417539 60.788253 48.021797 37.667469 29.330260 22.666893 17.381613 13.221848 9.973844 7.458344 5.526408 4.055428 2.945411 2.115566 1.501223 1.051105 0.724936 0.491385 0.326320 0.211334 0.132538 0.079560 0.044745 0.022506 0.008822 0.000834 -0.003456 -0.005423 -0.005994 -0.005778 -0.005167 -0.004400 -0.003618 -0.002896 -0.002268 -0.001744 -0.001320 -0.000985 -0.000726 -0.000529 -0.000381 -0.000272 -0.000192 -0.000135 -0.000094 -0.000064 -0.000044 -0.000030 -0.000020 -0.000013 -0.000009 -0.000006 -0.000004 -0.000002 -0.000002 -0.000001 -0.000001 -0.000000 -0.000000 -0.000000 -0.000000 -0.000000 -0.000000 -0.000000 -0.000000 12982.131249 12982.131249 12982.131249 12969.607402 12835.968307 12514.966595 12167.822225 11783.428035 11393.485451 11015.046210 10606.747942 10133.724918 9612.342588 9069.493717 8493.568639 7884.369366 7253.754755 6612.679991 5973.492754 5348.307504 4749.101983 4201.560555 3721.244982 3302.575429 2936.449357 2618.768229 2338.961110 2080.436066 1833.365937 1598.707222 1382.102513 1187.955042 1017.526363 869.550166 741.512587 630.670140 534.580269 451.251779 379.095633 316.813754 263.297859 217.561614 178.704113 145.894326 118.366482 95.419594 76.417539 60.788253 48.021797 37.667469 29.330260 22.666893 17.381613 13.221848 9.973844 7.458344 5.526408 4.055428 2.945411 2.115566 1.501223 1.051105 0.724936 0.491385 0.326320 0.211334 0.132538 0.079560 0.044745 0.022506 0.008822 0.000834 -0.003456 -0.005423 -0.005994 -0.005778 -0.005167 -0.004400 -0.003618 -0.002896 -0.002268 -0.001744 -0.001320 -0.000985 -0.000726 -0.000529 -0.000381 -0.000272 -0.000192 -0.000135 -0.000094 -0.000064 -0.000044 -0.000030 -0.000020 -0.000013 -0.000009 -0.000006 -0.000004 -0.000002 -0.000002 -0.000001 -0.000001 -0.000000 -0.000000 -0.000000 -0.000000 -0.000000 -0.000000 -0.000000 -0.000000 12410.317919 12410.317919 12410.317919 12351.491350 11912.943298 12408.684963 13944.227207 10010.936759 8231.268473 7619.616527 5630.230840 6869.991507 7151.550001 7878.222527 7179.449484 4250.591385 2629.348147 903.750734 -99.719293 200.384725 1663.746624 2483.037801 -485.482943 -2244.879300 -1167.533204 -346.923728 397.008953 1362.784383 1913.909994 -567.899590 -1489.145938 357.128897 2304.035587 477.091271 -2156.987693 -450.372731 1660.443513 173.653866 -1905.966846 -726.750825 962.052488 1132.000931 -1208.986562 -1354.274140 -243.856558 861.280010 1147.823887 -797.955648 -1233.408815 -111.973006 -147.848268 -1981.255598 -2295.095228 -1788.990846 -1517.383711 -1350.299365 12254.496355 12254.496355 12254.496355 12146.659405 10463.620192 7933.748381 13362.181393 9764.258065 12851.828814 9141.914360 9930.014007 8043.877926 10050.688455 10426.936380 11536.345854 10294.008731 9217.872587 8197.352583 11083.267151 8684.795478 11410.957431 9720.208143 9686.810346 9850.333244 10258.536397 11610.005688 9787.619302 8959.290044 7854.596136 8701.871579 12540.007132 9460.131844 9862.592093 11481.238262 8756.811723 9174.504728 8398.735812 7300.007275 9595.608846 9645.639600 9213.334979 10064.257082 7429.822156 10298.352099 11345.009558 11201.191429 12679.046119 8662.435755 9265.062235 10529.757430 11784.663474 10826.929591 12841.027698 -134.837426 158.071153 -1765.994813 12179.041858 12179.041858 12179.041858 12217.899861 12087.560647 10754.436707 10371.966967 11408.484009 10748.401935 10456.434036 9065.879151 11058.528538 10892.672789 10756.212544 8428.078627 10584.482325 10654.426157 8493.097453 10699.335606 8553.974729 10419.435231 9191.898102 6701.397626 8923.636682 7504.170196 6859.680561 9317.225206 11560.158950 7468.790854 9490.447965 10327.361610 9687.930237 8182.224948 10717.514135 8824.815021 7870.494011 8667.681278 8636.581694 12149.357645 10480.680342 7581.583251 10609.184689 8796.992896 7769.017782 10211.488423 9801.724277 7100.395551 10836.721697 9492.994131 10445.381305 10049.352537 6364.259912 3352.547578 1448.967210 121.642924 126.181001 12096.958729 12096.958729 12096.958729 12070.970737 12726.785467 13679.777528 14504.202593 14347.202416 10562.618165 10459.906261 11186.012009 9154.824761 8335.603462 8225.372497 9701.564947 9958.939683 7414.659017 8352.903222 7846.013929 6501.528927 7283.123113 7908.702741 9265.049170 7071.368293 11687.019683 7432.518439 9754.289575 11208.941798 7524.590536 7123.586204 6115.592779 9591.068893 7240.698398 8423.339465 6039.147297 6548.527372 5615.443379 9003.436623 7821.437235 7178.686398 10359.009181 12988.864748 7069.812597 7485.364849 10810.305594 8942.785477 9541.395078 11594.636752 6840.331259 9484.594745 4490.032202 7244.792149 641.058599 2030.973715 -268.757055 -314.505707 11934.643997 11934.643997 11934.643997 11891.281088 10630.943192 7918.813336 12610.795201 11869.386816 7137.022737 13559.803457 10752.264591 11419.663468 11207.405054 8627.609324 9597.213665 8840.441011 9217.935329 8780.702874 6407.971990 9169.784550 9329.211661 6427.111585 6020.752261 9579.025244 9506.830554 7000.491470 7709.994589 5441.779543 4826.300094 8797.503952 6110.049283 6020.564047 5756.346511 5948.361552 4692.389901 4646.254451 8384.169310 6718.151659 4460.118148 6398.241229 10477.268239 4461.728663 9235.229757 7182.670555 2907.311610 1503.870518 7687.498625 5566.853612 7269.363600 2208.672499 8621.513489 1228.165445 473.169464 4