<VTKFile type="PolyData">
<PolyData>
<Piece NumberOfPoints="8632" NumberOfVerts="8632" NumberOfLines="0" NumberOfStrips="0" NumberOfPolys="0">
<PointData>
<DataArray type="Float64" Name="Pressure" format="ascii">
 13093.661048 13093.661048 13093.661048 13086.484780 13003.855295 12777.746866 12488.160233 12133.803806 11745.130461 11337.054425 10907.159640 10450.649533 9939.093622 9340.950247 8663.602678 7939.004819 7189.696896 6427.156890 5659.060500 4890.274313 4126.048423 3386.812965 2703.924825 2108.396062 1620.638371 1245.548520 973.632332 785.637806 656.720666 556.806655 449.109768 301.440420 130.550559 11.371537 -20.650865 3.249881 30.671281 6.621043 -94.385141 -212.702377 -277.049928 -300.997863 -344.043827 -462.763456 -644.295832 -804.659904 -930.595101 -1080.973599 -1268.051252 -1416.740916 -1486.203616 -1495.973980 -1473.228824 -1433.984975 -1385.983749 -1332.680020 -1275.635784 -1216.259467 -1156.067635 -1096.083488 -1036.856793 -978.714787 -921.888857 -866.564942 -812.899342 -761.022517 -711.039858 -663.032481 -617.058760 -573.156441 -531.345046 -491.628274 -453.996217 -418.427312 -384.890007 -353.344168 -323.742274 -296.030453 -270.149401 -246.035212 -223.620162 -202.833444 -183.601873 -165.850552 -149.503510 -134.484295 -120.716527 -108.124403 -96.633151 -86.169429 -76.661676 -68.040403 -60.238437 -53.191114 -46.836423 -41.115114 -35.970763 -31.349812 -27.201607 -23.478472 -20.135943 -17.133420 -14.435904 -12.018062 -9.871585 -8.005460 -6.398054 -5.366188 -5.171597 -5.171597 -5.171597 13093.661048 13093.661048 13093.661048 13086.484780 13003.855295 12777.746866 12488.160233 12133.803806 11745.130461 11337.054425 10907.159640 10450.649533 9939.093622 9340.950247 8663.602678 7939.004819 7189.696896 6427.156890 5659.060500 4890.274313 4126.048423 3386.812965 2703.924825 2108.396062 1620.638371 1245.548520 973.632332 785.637806 656.720666 556.806655 449.109768 301.440420 130.550559 11.371537 -20.650865 3.249881 30.671281 6.621043 -94.385141 -212.702377 -277.049928 -300.997863 -344.043827 -462.763456 -644.295832 -804.659904 -930.595101 -1080.973599 -1268.051252 -1416.740916 -1486.203616 -1495.973980 -1473.228824 -1433.984975 -1385.983749 -1332.680020 -1275.635784 -1216.259467 -1156.067635 -1096.083488 -1036.856793 -978.714787 -921.888857 -866.564942 -812.899342 -761.022517 -711.039858 -663.032481 -617.058760 -573.156441 -531.345046 -491.628274 -453.996217 -418.427312 -384.890007 -353.344168 -323.742274 -296.030453 -270.149401 -246.035212 -223.620162 -202.833444 -183.601873 -165.850552 -149.503510 -134.484295 -120.716527 -108.124403 -96.633151 -86.169429 -76.661676 -68.040403 -60.238437 -53.191114 -46.836423 -41.115114 -35.970763 -31.349812 -27.201607 -23.478472 -20.135943 -17.133420 -14.435904 -12.018062 -9.871585 -8.005460 -6.398054 -5.366188 -5.171597 -5.171597 -5.171597 13093.661048 13093.661048 13093.661048 13086.484780 13003.855295 12777.746866 12488.160233 12133.803806 11745.130461 11337.054425 10907.159640 10450.649533 9939.093622 9340.950247 8663.602678 7939.004819 7189.696896 6427.156890 5659.060500 4890.274313 4126.048423 3386.812965 2703.924825 2108.396062 1620.638371 1245.548520 973.632332 785.637806 656.720666 556.806655 449.109768 301.440420 130.550559 11.371537 -20.650865 3.249881 30.671281 6.621043 -94.385141 -212.702377 -277.049928 -300.997863 -344.043827 -462.763456 -644.295832 -804.659904 -930.595101 -1080.973599 -1268.051252 -1416.740916 -1486.203616 -1495.973980 -1473.228824 -1433.984975 -1385.983749 -1332.680020 -1275.635784 -1216.259467 -1156.067635 -1096.083488 -1036.856793 -978.714787 -921.888857 -866.564942 -812.899342 -761.022517 -711.039858 -663.032481 -617.058760 -573.156441 -531.345046 -491.628274 -453.996217 -418.427312 -384.890007 -353.344168 -323.742274 -296.030453 -270.149401 -246.035212 -223.620162 -202.833444 -183.601873 -165.850552 -149.503510 -134.484295 -120.716527 -108.124403 -96.633151 -86.169429 -76.661676 -68.040403 -60.238437 -53.191114 -46.836423 -41.115114 -35.970763 -31.349812 -27.201607 -23.478472 -20.135943 -17.133420 -14.435904 -12.018062 -9.871585 -8.005460 -6.398054 -5.366188 -5.171597 -5.171597 -5.171597 13103.744762 13103.744762 13103.744762 13096.488992 13013.603234 12789.480557 12496.133410 12129.533912 11735.230188 11326.681649 10893.500936 10445.588424 9945.487481 9349.315730 8671.271158 7949.961685 7201.260504 6435.584894 5663.143990 4895.687739 4128.426803 3385.767347 2700.701270 2104.046005 1615.273845 1240.406874 970.506512 786.233543 663.160430 571.895180 472.145653 315.810165 114.918430 -17.675854 -38.178932 3.891115 49.817896 36.671681 -87.329050 -235.606501 -290.958586 -294.154611 -318.823051 -441.178231 -665.926783 -818.090746 -924.335314 -1078.723738 -1309.616254 -1447.994149 -1508.381613 -1508.286894 -1479.903872 -1437.716399 -1388.333985 -1334.401385 -1276.785699 -1216.854592 -1156.317380 -1096.175825 -1036.882221 -978.711842 -921.873278 -866.543196 -812.874211 -760.995321 -711.011326 -663.003089 -617.028860 -573.126312 -531.314919 -491.598340 -453.966638 -418.398227 -384.861532 -353.316404 -323.715307 -296.004358 -270.124238 -246.011033 -223.597008 -202.811346 -183.580853 -165.830623 -149.484676 -134.466553 -120.699867 -108.108810 -96.618603 -86.155900 -76.649135 -68.028816 -60.227767 -53.181322 -46.827469 -41.106954 -35.963346 -31.343073 -27.195442 -23.472681 -20.130076 -17.126413 -14.425266 -11.998661 -9.838472 -7.963137 -6.363599 -5.339132 -5.146198 -5.146198 -5.146198 13210.118823 13210.118823 13210.118823 13201.499356 13117.157045 12933.709781 12611.555909 12083.081895 11642.757892 11244.308961 10735.705969 10386.249557 10015.881088 9412.183516 8731.707117 8085.572366 7356.668069 6527.995037 5689.583380 4956.082553 4152.598019 3360.113283 2666.266167 2071.624955 1569.643843 1189.043628 938.092567 793.761081 735.177462 750.437476 791.747129 600.184119 -168.370894 -451.670652 -250.467903 11.792100 285.623230 520.545119 1.269552 -626.518013 -478.776773 -217.304632 64.408241 -108.413036 -994.572433 -1082.341534 -800.056374 -974.935306 -1837.141755 -1957.209066 -1758.285457 -1643.725075 -1552.304977 -1478.168431 -1414.295182 -1355.180527 -1290.960647 -1223.032294 -1158.811570 -1097.075954 -1037.124683 -978.677365 -921.715437 -866.324893 -812.622539 -760.723199 -710.725939 -662.709150 -616.729866 -572.825051 -531.013683 -491.299049 -453.670910 -418.107435 -384.576850 -353.038837 -323.445716 -295.743478 -269.872687 -245.769321 -223.365544 -202.590440 -183.370723 -165.631398 -149.296404 -134.289204 -120.533343 -107.952948 -96.473187 -86.020666 -76.523778 -67.912997 -60.121122 -53.083461 -46.737982 -41.025401 -35.889226 -31.275739 -27.133881 -23.414930 -20.071751 -17.056997 -14.319123 -11.796854 -9.428466 -7.407610 -5.938332 -5.029734 -4.867804 -4.867804 -4.867804 13359.079997 13359.079997 13359.079997 13344.360858 13159.468352 13073.815648 12902.139770 11808.344359 11466.935542 11467.472719 10308.310751 10528.305345 10144.934509 9273.353120 8680.087628 8454.957239 7666.410582 6783.153857 5311.569864 5305.153191 4095.745027 3155.929333 2618.410547 2145.189124 1558.759445 1141.562981 907.503930 808.251371 826.474100 979.425210 1379.078787 1261.392800 -695.934636 -1251.096725 -533.784512 21.465714 628.101873 1245.005722 102.062798 -1230.061744 -767.793560 -124.196517 646.368298 465.753040 -1356.329277 -1473.202062 -521.710663 -446.296092 -2130.979785 -2569.648748 -2069.628420 -1805.284880 -1637.732486 -1525.899755 -1445.919947 -1385.792406 -1318.022999 -1233.923544 -1162.742738 -1098.501056 -1037.554853 -978.698815 -921.559735 -866.085808 -812.339699 -760.414820 -710.401604 -662.374784 -616.389671 -572.482279 -530.670972 -490.958585 -453.334530 -417.776697 -384.253084 -352.723182 -323.139149 -295.446831 -269.586663 -245.494498 -223.102385 -202.339299 -183.131845 -165.404930 -149.082398 -134.087626 -120.344080 -107.775815 -96.307935 -85.866994 -76.381338 -67.781404 -59.999958 -52.972282 -46.636314 -40.932729 -35.804947 -31.199033 -27.063372 -23.347820 -20.001576 -16.967788 -14.169529 -11.472250 -8.547203 -6.384946 -5.272527 -4.603754 -4.481222 -4.481222 -4.481222 -5.965543 -5.004174 -4.496295 -4.427560 -4.427560 -4.427560 -4.995450 -4.450462 -4.108271 -4.061415 -4.061415 -4.061415 -3.858839 -3.673656 -3.521320 -3.499820 -3.499820 -3.499820 -3.122607 -3.053972 -2.994773 -2.986027 -2.986027 -2.986027 -2.577469 -2.554191 -2.534818 -2.532067 -2.532067 -2.532067 -2.146637 -2.141304 -2.138160 -2.137892 -2.137892 -2.137892 -1.793787 -1.795354 -1.798392 -1.799062 -1.799062 -1.799062 -1.499673 -1.503612 -1.508653 -1.509610 -1.509610 -1.509610 -1.252600 -1.257073 -1.262428 -1.263412 -1.263412 -1.263412 -1.044487 -1.048781 -1.053804 -1.054715 -1.054715 -1.054715 -0.869177 -0.873044 -0.877523 -0.878331 -0.878331 -0.878331 -0.721684 -0.725065 -0.728964 -0.729665 -0.729665 -0.729665 -0.597827 -0.600739 -0.604090 -0.604693 -0.604693 -0.604693 -0.494049 -0.496536 -0.499395 -0.499909 -0.499909 -0.499909 -0.407304 -0.409415 -0.411842 -0.412278 -0.412278 -0.412278 -0.334974 -0.336760 -0.338812 -0.339180 -0.339180 -0.339180 -0.274817 -0.276321 -0.278051 -0.278361 -0.278361 -0.278361 -0.224910 -0.226174 -0.227627 -0.227888 -0.227888 -0.227888 -0.183614 -0.184673 -0.185890 -0.186109 -0.186109 -0.186109 -0.149530 -0.150415 -0.151432 -0.151614 -0.151614 -0.151614 -0.121472 -0.122209 -0.123056 -0.123208 -0.123208 -0.123208 -0.098434 -0.099046 -0.099750 -0.099877 -0.099877 -0.099877 -0.079567 -0.080074 -0.080657 -0.080762 -0.080762 -0.080762 -0.064155 -0.064574 -0.065056 -0.065143 -0.065143 -0.065143 -0.051600 -0.051945 -0.052342 -0.052414 -0.052414 -0.052414 -0.041397 -0.041681 -0.042007 -0.042066 -0.042066 -0.042066 -0.033129 -0.033361 -0.033629 -0.033677 -0.033677 -0.033677 -0.026445 -0.026635 -0.026854 -0.026893 -0.026893 -0.026893 -0.021057 -0.021211 -0.021390 -0.021422 -0.021422 -0.021422 -0.016724 -0.016849 -0.016994 -0.017020 -0.017020 -0.017020 -0.013249 -0.013351 -0.013468 -0.013489 -0.013489 -0.013489 -0.010469 -0.010552 -0.010646 -0.010664 -0.010664 -0.010664 -0.008252 -0.008318 -0.008395 -0.008408 -0.008408 -0.008408 -0.006488 -0.006541 -0.006602 -0.006613 -0.006613 -0.006613 -0.005088 -0.005130 -0.005180 -0.005188 -0.005188 -0.005188 -0.003979 -0.004014 -0.004053 -0.004060 -0.004060 -0.004060 -0.003105 -0.003132 -0.003163 -0.003169 -0.003169 -0.003169 -0.002416 -0.002438 -0.002463 -0.002467 -0.002467 -0.002467 -0.001875 -0.001893 -0.001912 -0.001916 -0.001916 -0.001916 -0.001452 -0.001465 -0.001481 -0.001484 -0.001484 -0.001484 -0.001121 -0.001132 -0.001144 -0.001146 -0.001146 -0.001146 -0.000864 -0.000872 -0.000882 -0.000883 -0.000883 -0.000883 -0.000663 -0.000670 -0.000678 -0.000679 -0.000679 -0.000679 -0.000508 -0.000514 -0.000520 -0.000521 -0.000521 -0.000521 -0.000389 -0.000393 -0.000397 -0.000398 -0.000398 -0.000398 -0.000296 -0.000299 -0.000303 -0.000304 -0.000304 -0.000304 -0.000225 -0.000228 -0.000230 -0.000231 -0.000231 -0.000231 -0.000171 -0.000173 -0.000175 -0.000175 -0.000175 -0.000175 -0.000129 -0.000131 -0.000132 -0.000133 -0.000133 -0.000133 -0.000097 -0.000099 -0.000100 -0.000100 -0.000100 -0.000100 -0.000073 -0.000074 -0.000075 -0.000075 -0.000075 -0.000075 -0.000055 -0.000056 -0.000056 -0.000057 -0.000057 -0.000057 -0.000041 -0.000042 -0.000042 -0.000042 -0.000042 -0.000042 -0.000031 -0.000031 -0.000032 -0.000032 -0.000032 -0.000032 -0.000023 -0.000023 -0.000024 -0.000024 -0.000024 -0.000024 -0.000017 -0.000017 -0.000018 -0.000018 -0.000018 -0.000018 -0.000013 -0.000013 -0.000013 -0.000013 -0.000013 -0.000013 -0.000009 -0.000009 -0.000010 -0.000010 -0.000010 -0.000010 -0.000007 -0.000007 -0.000007 -0.000007 -0.000007 -0.000007 -0.000005 -0.000005 -0.000005 -0.000005 -0.000005 -0.000005 -0.000004 -0.000004 -0.000004 -0.000004 -0.000004 -0.000004 -0.000003 -0.000003 -0.000003 -0.000003 -0.000003 -0.000003 -0.000002 -0.000002 -0.000002 -0.000002 -0.000002 -0.000002 -0.000001 -0.000001 -0.000001 -0.000001 -0.000001 -0.000001 -0.000001 -0.000001 -0.000001 -0.000001 -0.000001 -0.000001 -0.000001 -0.000001 -0.000001 -0.000001 -0.000001 -0.000001 -0.000001 -0.000001 -0.000001 -0.000001 -0.000001 -0.000001 -0.000000 -0.000000 -0.000000 -0.000000 -0.000000 -0.000000 -0.000000 -0.000000 -0.000000 -0.000000 -0.000000 -0.000000 -0.000000 -0.000000 -0.000000 -0.000000 -0.000000 -0.000000 -0.000000 -0.000000 -0.000000 -0.000000 -0.000000 -0.000000 -0.000000 -0.000000 -0.000000 -0.000000 -0.000000 -0.000000 -0.000000 -0.000000 -0.000000 -0.000000 -0.000000 -0.000000 -0.000000 -0.000000 -0.000000 -0.000000 -0.000000 -0.000000 -0.000000 -0.000000 -0.000000 -0.000000 -0.000000 -0.000000 -0.000000 -0.000000 -0.000000 -0.000000 -0.000000 -0.000000 -0.000000 -0.000000 -0.000000 -0.000000 -0.000000 -0.000000 -0.000000 -0.000000 -0.000000 -0.000000 -0.000000 -0.000000 -0.000000 -0.000000 -0.000000 -0.000000 -0.000000 -0.000000 -0.000000 -0.000000 -0.000000 -0.000000 -0.000000 -0.000000 -0.000000 -0.000000 -0.000000 -0.000000 -0.000000 -0.000000 -0.000000 -0.000000 -0.000000 -0.000000 -0.000000 -0.000000 -0.000000 -0.000000 -0.000000 -0.000000 -0.000000 -0.000000 -0.000000 -0.000000 -0.000000 -0.000000 -0.000000 -0.000000 -0.000000 -0.000000 -0.000000 -0.000000 -0.000000 -0.000000 -0.000000 -0.000000 -0.000000 0.000000 0.000000 0.000000 -0.000000 -0.000000 -0.000000 0.000000 0.000000 0.000000 -0.000000 -0.000000 -0.000000 0.000000 0.000000 0.000000 -0.000000 -0.000000 -0.000000 0.000000 0.000000 0.000000 -0.000000 -0.000000 -0.000000 0.000000 0.000000 0.000000 -0.000000 -0.000000 -0.000000 0.000000 0.000000 0.000000 -0.000000 -0.000000 -0.000000 0.000000 0.000000 0.000000 -0.000000 -0.000000 -0.000000 0.000000 0.000000 0.000000 -0.000000 -0.000000 -0.000000 0.000000 0.000000 0.000000 -0.000000 -0.000000 -0.000000 0.000000 0.000000 0.000000 -0.000000 -0.000000 -0.000000 0.000000 0.000000 0.000000 -0.000000 -0.000000 -0.000000 0.000000 0.000000 0.000000 -0.000000 -0.000000 -0.000000 0.000000 0.000000 0.000000 -0.000000 -0.000000 -0.000000 0.000000 0.000000 0.000000 -0.000000 -0.000000 -0.000000 0.000000 0.000000 0.000000 -0.000000 -0.000000 -0.000000 0.000000 0.000000 0.000000 -0.000000 -0.000000 -0.000000 0.000000 0.000000 0.000000 -0.000000 -0.000000 -0.000000 0.000000 0.000000 0.000000 -0.000000 -0.000000 -0.000000 0.000000 0.000000 0.000000 -0.000000 -0.000000 -0.000000 0.000000 0.000000 0.000000 -0.000000 -0.000000 -0.000000 0.000000 0.000000 0.000000 -0.000000 -0.000000 -0.000000 0.000000 0.000000 0.000000 -0.000000 -0.000000 -0.000000 0.000000 0.000000 0.000000 -0.000000 -0.000000 -0.000000 0.000000 0.000000 0.000000 -0.000000 -0.000000 -0.000000 0.000000 0.000000 0.000000 -0.000000 -0.000000 -0.000000 0.000000 0.000000 0.000000 -0.000000 -0.000000 -0.000000 0.000000 0.000000 0.000000 -0.000000 -0.000000 -0.000000 0.000000 0.000000 0.000000 -0.000000 -0.000000 -0.000000 0.000000 0.000000 0.000000 -0.000000 -0.000000 -0.000000 0.000000 0.000000 0.000000 -0.000000 -0.000000 -0.000000 0.000000 0.000000 0.000000 -0.000000 -0.000000 -0.000000 0.000000 0.000000 0.000000 0.000000 -0.000000 -0.000000 0.000000 0.000000 0.000000 0.000000 -0.000000 0.000000 0.000000 0.000000 0.000000 0.000000 0.000000 0.000000 0.000000 0.000000 0.000000 0.000000 0.000000 0.000000 0.000000 0.000000 0.000000 0.000000 0.000000 0.000000 0.000000 0.000000 0.000000 0.000000 0.000000 0.000000 0.000000 0.000000 0.000000 0.000000 0.000000 0.000000 0.000000 0.000000 0.000000 0.000000 0.000000 0.000000 0.000000 0.000000 0.000000 0.000000 0.000000 0.000000 0.000000 0.000000 0.000000 0.000000 0.000000 0.000000 0.000000 0.000000 0.000000 0.000000 0.000000 0.000000 0.000000 0.000000 0.000000 0.000000 0.000000 0.000000 0.000000 0.000000 0.000000 0.000001 0.000001 0.000001 0.000001 0.000001 0.000001 0.000001 0.000001 0.000001 0.000001 0.000001 0.000001 0.000002 0.000002 0.000003 0.000003 0.000003 0.000003 0.000004 0.000004 0.000004 0.000004 0.000004 0.000004 0.000007 0.000007 0.000007 0.000008 0.000008 0.000008 0.000012 0.000012 0.000013 0.000013 0.000013 0.000013 0.000020 0.000020 0.000021 0.000021 0.000021 0.000021 0.000032 0.000033 0.000035 0.000035 0.000035 0.000035 0.000053 0.000055 0.000057 0.000057 0.000057 0.000057 0.000086 0.000089 0.000092 0.000092 0.000092 0.000092 0.000138 0.000142 0.000147 0.000148 0.000148 0.000148 0.000219 0.000226 0.000233 0.000234 0.000234 0.000234 0.000345 0.000354 0.000365 0.000367 0.000367 0.000367 0.000536 0.000550 0.000567 0.000570 0.000570 0.000570 0.000826 0.000847 0.000871 0.000875 0.000875 0.000875 0.001258 0.001288 0.001323 0.001329 0.001329 0.001329 0.001897 0.001939 0.001989 0.001998 0.001998 0.001998 0.002829 0.002888 0.002958 0.002971 0.002971 0.002971 0.004173 0.004256 0.004353 0.004370 0.004370 0.004370 0.006089 0.006203 0.006335 0.006359 0.006359 0.006359 0.008789 0.008943 0.009121 0.009153 0.009153 0.009153 0.012544 0.012750 0.012987 0.013029 0.013029 0.013029 0.017705 0.017975 0.018285 0.018341 0.018341 0.018341 0.024707 0.025055 0.025456 0.025528 0.025528 0.025528 0.034084 0.034526 0.035034 0.035126 0.035126 0.035126 0.046473 0.047025 0.047660 0.047774 0.047774 0.047774 0.062621 0.063298 0.064075 0.064214 0.064214 0.064214 0.083370 0.084183 0.085115 0.085283 0.085283 0.085283 0.109638 0.110595 0.111690 0.111886 0.111886 0.111886 0.142388 0.143485 0.144739 0.144964 0.144964 0.144964 0.182559 0.183783 0.185179 0.185429 0.185429 0.185429 0.230994 0.232314 0.233818 0.234087 0.234087 0.234087 0.288325 0.289691 0.291245 0.291522 0.291522 0.291522 0.354840 0.356178 0.357695 0.357965 0.357965 0.357965 0.430318 0.431526 0.432890 0.433133 0.433133 0.433133 0.513850 0.514798 0.515859 0.516047 0.516047 0.516047 0.603641 0.604169 0.604746 0.604846 0.604846 0.604846 0.696819 0.696741 0.696621 0.696597 0.696597 0.696597 0.789257 0.788368 0.787318 0.787126 0.787126 0.787126 0.875445 0.873528 0.871300 0.870897 0.870897 0.870897 0.948414 0.945254 0.941606 0.940949 0.940949 0.940949 0.999760 0.995162 0.989874 0.988923 0.988923 0.988923 1.019777 1.013586 1.006481 1.005206 1.005206 1.005206 0.997725 0.989845 0.980819 0.979201 0.979201 0.979201 0.922243 0.912663 0.901705 0.899742 0.899742 0.899742 0.781911 0.770721 0.757939 0.755651 0.755651 0.755651 0.565946 0.553359 0.538996 0.536426 0.536426 0.536426 0.265010 0.251368 0.235816 0.233035 0.233035 0.233035 -0.127914 -0.142138 -0.158338 -0.161233 -0.161233 -0.161233 -0.616641 -0.630848 -0.647014 -0.649902 -0.649902 -0.649902 -1.200951 -1.214440 -1.229772 -1.232509 -1.232509 -1.232509 -1.875895 -1.887889 -1.901505 -1.903934 -1.903934 -1.903934 -2.631307 -2.640999 -2.651980 -2.653937 -2.653937 -2.653937 -3.451592 -3.458189 -3.465638 -3.466962 -3.466962 -3.466962 -4.315845 -4.318628 -4.321728 -4.322275 -4.322275 -4.322275 -5.198340 -5.196718 -5.194798 -5.194448 -5.194448 -5.194448 -6.069389 -6.062948 -6.055545 -6.054214 -6.054214 -6.054214 -6.896549 -6.885104 -6.872006 -6.869659 -6.869659 -6.869659 -7.646129 -7.629751 -7.611044 -7.607695 -7.607695 -7.607695 -8.284908 -8.263948 -8.240030 -8.235751 -8.235751 -8.235751 -8.781953 -8.757048 -8.728640 -8.723559 -8.723559 -8.723559 -9.110421 -9.082491 -9.050628 -9.044928 -9.044928 -9.044928 -9.249194 -9.219447 -9.185477 -9.179396 -9.179396 -9.179396 -9.184201 -9.154177 -9.119788 -9.113623 -9.113623 -9.113623 -8.909239 -8.880975 -8.848338 -8.842460 -8.842460 -8.842460 -8.426052 -8.402538 -8.374710 -8.369632 -8.369632 -8.369632 -7.743194 -7.729546 -7.711517 -7.708047 -7.708047 -7.708047 -6.872717 -6.879115 -6.880268 -6.879871 -6.879871 -6.879871 -5.822182 -5.871724 -5.911206 -5.916667 -5.916667 -5.916667 -4.574445 -4.728025 -4.844363 -4.860230 -4.860230 -4.860230 -3.022864 -3.490594 -3.728383 -3.759730 -3.759730 -3.759730 19597.229698 19597.229698 19597.229698 19490.330463 18834.068499 17035.139493 13368.630294 13135.025891 16674.004816 14337.985556 10840.415471 14539.363256 17087.975454 11666.625591 10474.648405 12927.232991 12308.552372 10004.300472 9834.701609 10976.724309 9495.774419 16169.612134 8818.828455 10083.741220 13275.923956 10643.134853 2602.964259 3166.679251 873.552164 -19.324876 6051.155670 4519.021794 -7793.476732 -5086.867222 -833.130733 1057.862330 2023.599571 2520.260745 2815.984339 3276.526790 3695.496397 -56.831497 -2618.538543 -854.663767 255.546490 952.407508 1894.441507 3789.857081 1093.623276 -3436.519140 -2353.792284 -1198.672036 -743.182007 -527.813241 -417.930740 -353.694853 -308.926458 -272.233000 -238.865381 -207.047712 -176.318917 -146.780976 -118.753362 -92.608975 -68.692582 -47.278960 -28.552386 -12.599380 0.589352 11.110298 19.133859 24.888192 28.641775 30.686103 31.319641 30.833912 29.502238 27.571418 25.256338 22.737295 20.159678 17.635534 15.246527 13.047782 11.072178 9.334703 7.836582 6.568974 5.516122 4.657890 3.971712 3.433995 3.021053 2.709672 2.477397 2.302636 2.164646 2.043453 1.919666 1.774065 1.586556 1.333524 0.981054 0.468222 -0.372774 -1.427794 -2.149115 -2.545898 -2.617389 -2.617389 -2.617389 20249.563497 20249.563497 20249.563497 20188.940802 19822.160757 18555.829255 16166.650633 16358.173641 18061.059433 16332.416700 13982.792223 15091.959914 16095.064178 13463.846221 12279.697338 12730.540305 12731.084303 11290.754728 11244.544474 11319.410874 11091.795234 12057.958652 10214.740017 9568.052331 9598.276754 8934.130025 6702.161089 5720.404949 5007.818667 4637.221495 4855.479579 4049.716667 1496.586553 895.711457 1536.108751 2216.524728 2591.458141 2752.192010 2781.650862 2712.357065 2404.727820 920.341272 -72.607228 253.983802 592.879588 891.948644 1215.536542 1498.096806 539.726685 -949.846581 -952.965126 -725.449341 -543.088349 -440.413454 -378.981387 -336.158490 -300.964705 -268.605195 -237.236338 -206.369637 -176.116664 -146.834684 -118.956797 -92.906149 -69.049563 -47.671621 -28.961373 -13.008301 0.194385 10.740637 18.798202 24.592531 28.389484 30.478157 31.154951 30.709722 29.414568 27.515500 25.227019 22.729386 20.168230 17.656047 15.275077 13.081087 11.107604 9.370229 7.870735 6.600747 5.544883 4.683293 3.993617 3.452398 3.036037 2.721366 2.485964 2.308277 2.167647 2.044295 1.919284 1.774422 1.591964 1.353734 1.039136 0.622181 0.089186 -0.509464 -1.051467 -1.400395 -1.464682 -1.464682 -1.464682 20644.109216 20644.109216 20644.109216 20596.099089 20070.329654 18906.310817 17850.568203 17309.613807 16941.413600 16336.474763 15808.640667 15603.287146 15394.165256 14845.108775 14282.991522 13934.556655 13611.450181 13203.108575 12855.471889 12545.221925 12201.209680 11798.735437 11160.914400 10485.795680 9873.230778 9168.074918 8337.713757 7590.962906 6940.365824 6378.966542 5884.426904 5247.483893 4400.997494 3740.804405 3392.067542 3221.671850 3102.183705 2964.481528 2774.355514 2503.909574 2104.482278 1580.701132 1141.984791 934.627687 869.876336 852.485799 824.561811 694.932248 367.617882 -28.710127 -262.354657 -347.233794 -366.777713 -360.317886 -342.850523 -319.810515 -293.519386 -265.204798 -235.711788 -205.747185 -175.954162 -146.926534 -119.202340 -93.250871 -69.459046 -48.120325 -29.428154 -13.474901 -0.256398 10.318536 18.414682 24.254443 28.100715 30.239869 30.965952 30.566921 29.313472 27.450708 25.192681 22.719599 20.177360 17.678959 15.307288 13.118838 11.147874 9.410694 7.909697 6.637039 5.577768 4.712362 4.018699 3.473482 3.053209 2.734769 2.495776 2.314715 2.171008 2.045062 1.918367 1.773697 1.595474 1.370390 1.088545 0.746005 0.350307 -0.073204 -0.492807 -0.790388 -0.851121 -0.851121 -0.851121 20699.503283 20699.503283 20699.503283 20650.335544 20131.450048 18953.786850 17988.514609 17323.448179 16848.188077 16386.663430 15977.771464 15701.380875 15418.510794 14984.716862 14521.105092 14146.683308 13806.431720 13439.613754 13086.181012 12738.235507 12352.060519 11886.400653 11289.201988 10632.539599 9975.868462 9283.802362 8546.312049 7838.572504 7192.051546 6603.906400 6043.621241 5420.254291 4713.648999 4083.309416 3644.654732 3371.923904 3180.278236 2997.299322 2775.644727 2482.379970 2096.416841 1649.791247 1263.487312 1025.810739 909.511244 847.959966 775.998477 624.651251 356.786870 48.337469 -176.955875 -294.441897 -340.115445 -347.917068 -337.209808 -317.249514 -292.350286 -264.669875 -235.472233 -205.650842 -175.931867 -146.946001 -119.247600 -93.313104 -69.532519 -48.200668 -29.511677 -13.558382 -0.337061 10.242986 18.346011 24.193880 28.048958 30.197131 30.932025 30.541258 29.295274 27.439013 25.186445 22.717769 20.178929 17.683007 15.313013 13.125566 11.155063 9.417926 7.916666 6.643536 5.583658 4.717571 4.023195 3.477263 3.056289 2.737174 2.497536 2.315867 2.171603 2.045180 1.918155 1.773454 1.595837 1.372738 1.095782 0.763470 0.384897 -0.018363 -0.423202 -0.711522 -0.769132 -0.769132 -0.769132 20699.503283 20699.503283 20699.503283 20650.335544 20131.450048 18953.786850 17988.514609 17323.448179 16848.188077 16386.663430 15977.771464 15701.380875 15418.510794 14984.716862 14521.105092 14146.683308 13806.431720 13439.613754 13086.181012 12738.235507 12352.060519 11886.400653 11289.201988 10632.539599 9975.868462 9283.802362 8546.312049 7838.572504 7192.051546 6603.906400 6043.621241 5420.254291 4713.648999 4083.309416 3644.654732 3371.923904 3180.278236 2997.299322 2775.644727 2482.379970 2096.416841 1649.791247 1263.487312 1025.810739 909.511244 847.959966 775.998477 624.651251 356.786870 48.337469 -176.955875 -294.441897 -340.115445 -347.917068 -337.209808 -317.249514 -292.350286 -264.669875 -235.472233 -205.650842 -175.931867 -146.946001 -119.247600 -93.313104 -69.532519 -48.200668 -29.511677 -13.558382 -0.337061 10.242986 18.346011 24.193880 28.048958 30.197131 30.932025 30.541258 29.295274 27.439013 25.186445 22.717769 20.178929 17.683007 15.313013 13.125566 11.155063 9.417926 7.916666 6.643536 5.583658 4.717571 4.023195 3.477263 3.056289 2.737174 2.497536 2.315867 2.171603 2.045180 1.918155 1.773454 1.595837 1.372738 1.095782 0.763470 0.384897 -0.018363 -0.423202 -0.711522 -0.769132 -0.769132 -0.769132 20699.503283 20699.503283 20699.503283 20650.335544 20131.450048 18953.786850 17988.514609 17323.448179 16848.188077 16386.663430 15977.771464 15701.380875 15418.510794 14984.716862 14521.105092 14146.683308 13806.431720 13439.613754 13086.181012 12738.235507 12352.060519 11886.400653 11289.201988 10632.539599 9975.868462 9283.802362 8546.312049 7838.572504 7192.051546 6603.906400 6043.621241 5420.254291 4713.648999 4083.309416 3644.654732 3371.923904 3180.278236 2997.299322 2775.644727 2482.379970 2096.416841 1649.791247 1263.487312 1025.810739 909.511244 847.959966 775.998477 624.651251 356.786870 48.337469 -176.955875 -294.441897 -340.115445 -347.917068 -337.209808 -317.249514 -292.350286 -264.669875 -235.472233 -205.650842 -175.931867 -146.946001 -119.247600 -93.313104 -69.532519 -48.200668 -29.511677 -13.558382 -0.337061 10.242986 18.346011 24.193880 28.048958 30.197131 30.932025 30.541258 29.295274 27.439013 25.186445 22.717769 20.178929 17.683007 15.313013 13.125566 11.155063 9.417926 7.916666 6.643536 5.583658 4.717571 4.023195 3.477263 3.056289 2.737174 2.497536 2.315867 2.171603 2.045180 1.918155 1.773454 1.595837 1.372738 1.095782 0.763470 0.384897 -0.018363 -0.423202 -0.711522 -0.769132 -0.769132 -0.769132 13379.982318 13379.982318 13379.982318 13364.417317 13119.177451 13089.755280 13018.193111 11778.955878 11440.115128 11656.615899 10267.342706 10636.251495 10172.513709 9200.114134 8634.580632 8512.497798 7626.295592 6821.891154 5182.004939 5431.744970 4125.954233 3170.787128 2611.566153 2235.167696 1609.841004 1137.852534 904.888524 809.017917 833.007019 997.155433 1449.785202 1352.554111 -757.628810 -1353.722796 -561.463593 22.133650 653.639954 1289.185270 110.745345 -1266.247125 -789.415115 -116.987409 693.396296 528.945618 -1350.946284 -1493.739905 -487.828435 -332.406557 -2054.157753 -2585.235310 -2092.782892 -1817.123346 -1643.918933 -1529.354886 -1448.295949 -1388.746280 13543.641885 13543.641885 13543.641885 13520.900682 13198.241657 13390.724569 11956.791459 16908.399461 12708.211794 12102.157758 11115.948342 11871.334945 15569.562713 15264.218698 12298.615135 13574.587849 14854.018529 12664.439359 15357.764082 14385.063106 13345.966636 15414.916079 14385.735263 13939.894758 13335.496641 15222.016366 15559.762071 13891.549081 12133.972541 13627.600783 12383.641944 13528.016658 13300.139605 14728.418830 13838.488442 13595.596221 11483.651975 10776.750553 12640.618603 14032.281569 13519.834363 13751.209658 13236.702817 14092.314054 13842.970046 13125.313908 12445.771531 14547.174185 14730.794981 13430.493314 13911.193587 14366.436247 14624.207333 3357.242963 -663.666995 -2150.300321 13849.620551 13849.620551 13849.620551 13899.124356 14275.122019 13771.762208 12278.277845 12535.228797 10912.682622 13434.154422 13510.144491 12424.008208 13085.013537 11517.562108 12117.335114 11336.826710 12007.100002 14613.114215 12532.734903 13747.455812 14420.724496 13994.249764 12459.312856 13629.982295 12853.911972 14640.452160 12938.323027 14466.470113 13510.773193 14694.351236 13150.382323 13419.190046 12763.240555 15589.320539 12016.387787 14010.479633 11796.504736 13715.588014 13639.953360 12628.219584 10993.940475 12748.618287 12502.315182 13039.402436 13510.012889 14025.106579 12501.859599 13552.458733 13647.755127 12975.881930 15046.863854 14681.121109 6625.881687 8736.663973 -127.642184 42.153977 14078.168059 14078.168059 14078.168059 14260.065446 16142.281809 15987.334619 12829.662001 14847.398016 12208.258231 11514.117456 10899.735849 10514.329246 12388.577579 13166.123658 13795.122177 13428.643002 14161.188023 13271.979721 13341.358526 12731.548965 12656.095822 14136.196013 13879.740373 13123.870103 13646.926048 15807.016728 11527.867431 12707.277053 13013.463371 14781.162669 12145.273506 11285.569978 13382.846008 14778.057727 13909.404236 14062.828970 14313.651973 13344.388778 13095.568429 14450.865224 13665.916576 12526.657657 13730.665663 13668.681552 14775.223736 12298.353656 12542.678058 12452.853284 13772.611082 14246.184574 12403.895116 12917.687812 1361.624224 11634.449009 3785.261681 3495.313669 14076.414264 14076.414264 14076.414264 14156.500836 15458.163370 15490.6