<VTKFile type="PolyData">
<PolyData>
<Piece NumberOfPoints="8632" NumberOfVerts="8632" NumberOfLines="0" NumberOfStrips="0" NumberOfPolys="0">
<PointData>
<DataArray type="Float64" Name="Pressure" format="ascii">
 13003.573817 13003.573817 13003.573817 12997.478794 12928.659959 12748.402577 12531.637445 12263.559793 11941.993391 11571.246054 11137.802935 10628.708178 10060.280573 9443.611114 8769.850787 8047.664084 7304.050596 6550.015129 5777.200017 4970.974099 4133.887911 3295.984023 2512.917866 1850.136693 1342.480317 982.183611 741.615934 590.835244 500.592191 439.398577 370.101283 256.934752 106.682996 -8.320292 -41.099421 -15.284638 18.421359 4.669379 -87.786716 -206.586497 -274.603476 -298.451452 -335.587049 -444.062675 -620.101706 -782.661497 -907.082284 -1045.039090 -1225.483825 -1385.752964 -1466.153561 -1481.712080 -1463.293991 -1427.154136 -1381.177261 -1329.058917 -1272.539847 -1213.194146 -1152.689824 -1092.180450 -1032.323465 -973.529534 -916.088849 -860.223712 -806.108530 -753.878591 -703.635544 -655.452052 -609.376118 -565.435007 -523.638663 -483.982535 -446.449859 -411.013453 -377.637145 -346.276926 -316.881915 -289.395216 -263.754714 -239.893835 -217.742283 -197.226773 -178.271741 -160.800030 -144.733549 -129.993884 -116.502872 -104.183116 -92.958442 -82.754306 -73.498135 -65.119622 -57.550950 -50.726982 -44.585392 -39.066757 -34.114609 -29.675461 -25.698831 -22.137293 -18.946681 -16.086686 -13.522475 -11.228504 -9.195432 -7.430354 -5.911554 -4.937162 -4.753460 -4.753460 -4.753460 13003.573817 13003.573817 13003.573817 12997.478794 12928.659959 12748.402577 12531.637445 12263.559793 11941.993391 11571.246054 11137.802935 10628.708178 10060.280573 9443.611114 8769.850787 8047.664084 7304.050596 6550.015129 5777.200017 4970.974099 4133.887911 3295.984023 2512.917866 1850.136693 1342.480317 982.183611 741.615934 590.835244 500.592191 439.398577 370.101283 256.934752 106.682996 -8.320292 -41.099421 -15.284638 18.421359 4.669379 -87.786716 -206.586497 -274.603476 -298.451452 -335.587049 -444.062675 -620.101706 -782.661497 -907.082284 -1045.039090 -1225.483825 -1385.752964 -1466.153561 -1481.712080 -1463.293991 -1427.154136 -1381.177261 -1329.058917 -1272.539847 -1213.194146 -1152.689824 -1092.180450 -1032.323465 -973.529534 -916.088849 -860.223712 -806.108530 -753.878591 -703.635544 -655.452052 -609.376118 -565.435007 -523.638663 -483.982535 -446.449859 -411.013453 -377.637145 -346.276926 -316.881915 -289.395216 -263.754714 -239.893835 -217.742283 -197.226773 -178.271741 -160.800030 -144.733549 -129.993884 -116.502872 -104.183116 -92.958442 -82.754306 -73.498135 -65.119622 -57.550950 -50.726982 -44.585392 -39.066757 -34.114609 -29.675461 -25.698831 -22.137293 -18.946681 -16.086686 -13.522475 -11.228504 -9.195432 -7.430354 -5.911554 -4.937162 -4.753460 -4.753460 -4.753460 13003.573817 13003.573817 13003.573817 12997.478794 12928.659959 12748.402577 12531.637445 12263.559793 11941.993391 11571.246054 11137.802935 10628.708178 10060.280573 9443.611114 8769.850787 8047.664084 7304.050596 6550.015129 5777.200017 4970.974099 4133.887911 3295.984023 2512.917866 1850.136693 1342.480317 982.183611 741.615934 590.835244 500.592191 439.398577 370.101283 256.934752 106.682996 -8.320292 -41.099421 -15.284638 18.421359 4.669379 -87.786716 -206.586497 -274.603476 -298.451452 -335.587049 -444.062675 -620.101706 -782.661497 -907.082284 -1045.039090 -1225.483825 -1385.752964 -1466.153561 -1481.712080 -1463.293991 -1427.154136 -1381.177261 -1329.058917 -1272.539847 -1213.194146 -1152.689824 -1092.180450 -1032.323465 -973.529534 -916.088849 -860.223712 -806.108530 -753.878591 -703.635544 -655.452052 -609.376118 -565.435007 -523.638663 -483.982535 -446.449859 -411.013453 -377.637145 -346.276926 -316.881915 -289.395216 -263.754714 -239.893835 -217.742283 -197.226773 -178.271741 -160.800030 -144.733549 -129.993884 -116.502872 -104.183116 -92.958442 -82.754306 -73.498135 -65.119622 -57.550950 -50.726982 -44.585392 -39.066757 -34.114609 -29.675461 -25.698831 -22.137293 -18.946681 -16.086686 -13.522475 -11.228504 -9.195432 -7.430354 -5.911554 -4.937162 -4.753460 -4.753460 -4.753460 13014.730584 13014.730584 13014.730584 13009.379738 12948.473124 12783.460578 12567.870965 12287.929079 11951.101595 11581.594983 11155.264478 10638.762494 10068.007959 9456.773193 8774.899614 8033.727019 7281.505975 6529.556946 5768.206321 4968.637216 4129.389875 3281.192428 2480.521722 1810.645145 1309.256362 959.175280 727.755577 584.885891 502.845661 451.710007 392.426505 274.869710 96.029234 -36.434779 -60.086075 -16.481171 35.955395 33.899659 -76.857043 -229.944191 -290.345079 -294.295190 -312.404891 -421.556744 -641.191502 -797.786869 -899.036178 -1034.843884 -1263.139718 -1408.216055 -1487.622960 -1494.642587 -1470.332154 -1431.082352 -1383.634553 -1330.838535 -1273.719795 -1213.804306 -1152.946843 -1092.275997 -1032.349854 -973.526280 -916.072279 -860.200663 -806.082017 -753.850070 -703.605814 -655.421616 -609.345326 -565.404124 -523.607899 -483.952061 -446.419819 -410.983970 -377.608328 -346.248867 -316.854695 -289.368906 -263.729375 -239.869516 -217.719023 -197.204603 -178.250681 -160.780090 -144.714732 -129.976184 -116.486278 -104.167607 -92.943995 -82.740891 -73.485720 -65.108170 -57.540422 -50.717337 -44.576587 -39.058747 -34.107341 -29.668870 -25.692817 -22.131664 -18.941011 -16.079969 -13.512364 -11.210164 -9.164210 -7.390520 -5.879223 -4.911857 -4.729741 -4.729741 -4.729741 13139.915015 13139.915015 13139.915015 13148.263528 13228.194064 13283.134638 13066.769105 12581.146960 11998.935572 11695.162041 11413.192952 10760.377141 10167.119157 9692.781349 8894.258126 7856.403613 6974.233504 6254.791667 5657.322642 4950.088565 4093.496416 3128.401490 2090.989299 1330.511524 928.490408 707.768701 578.263490 521.317786 529.165192 597.960038 690.877760 612.538678 -97.543697 -476.196206 -293.005328 -30.826677 246.735055 511.137366 75.438080 -616.751221 -509.123369 -248.192496 25.541893 -73.777797 -949.655295 -1111.765316 -818.277923 -949.189591 -1809.712890 -1945.968259 -1742.013947 -1637.284849 -1546.699375 -1473.666100 -1410.750163 -1352.235361 -1288.202983 -1220.129909 -1155.512616 -1093.207594 -1032.601554 -973.488490 -915.904383 -859.969243 -805.816471 -753.564672 -703.308440 -655.117231 -609.037417 -565.095328 -523.300303 -483.647377 -446.119484 -410.689216 -377.320223 -345.968345 -316.582572 -289.105888 -263.476061 -239.626403 -217.486508 -196.982981 -178.040153 -160.580766 -144.526636 -129.799262 -116.320403 -104.012591 -92.799593 -82.606811 -73.361631 -64.993707 -57.435198 -50.620941 -44.488589 -38.978690 -34.034714 -29.603028 -25.632769 -22.075530 -18.884634 -16.013421 -13.411477 -11.019401 -8.777555 -6.867545 -5.480163 -4.622635 -4.469846 -4.469846 -4.469846 13322.128912 13322.128912 13322.128912 13356.583814 13806.460058 14549.065751 14108.425618 12886.383829 11354.757548 11652.186002 12397.618888 10586.785419 10270.916591 10678.456500 9371.072672 7247.378682 6434.864452 5518.605338 5671.131555 5011.393326 4018.632078 3241.974699 1349.587091 538.876536 460.232844 415.008555 408.026184 451.349000 565.712721 786.689044 1222.612941 1364.255308 -455.033872 -1314.843464 -625.157246 -49.633304 550.558477 1237.004534 286.933731 -1194.642515 -838.792155 -194.086381 539.116406 545.588823 -1241.514757 -1568.829810 -629.658731 -295.751008 -1844.393981 -2543.345870 -2087.290573 -1808.502168 -1636.828015 -1523.869452 -1443.694598 -1383.586940 -1315.696097 -1231.231466 -1159.541341 -1094.674834 -1033.044541 -973.506872 -915.737357 -859.715178 -805.517778 -753.241152 -702.970467 -654.771009 -608.687121 -564.744029 -522.950398 -483.300813 -445.777892 -410.353992 -376.992578 -345.649340 -316.273131 -288.806813 -263.188035 -239.349989 -217.222156 -196.731027 -177.800825 -160.354188 -144.312834 -129.598173 -116.131883 -103.836423 -92.635497 -82.454455 -73.220636 -64.863660 -57.315652 -50.511429 -44.388617 -38.887724 -33.952142 -29.528033 -25.564017 -22.010351 -18.816909 -15.928085 -13.269555 -10.712849 -7.946581 -5.904890 -4.855454 -4.224821 -4.109297 -4.109297 -4.109297 -5.509630 -4.602918 -4.124095 -4.059308 -4.059308 -4.059308 -4.598859 -4.085260 -3.762818 -3.718676 -3.718676 -3.718676 -3.535208 -3.360782 -3.217305 -3.197052 -3.197052 -3.197052 -2.849360 -2.784735 -2.728996 -2.720762 -2.720762 -2.720762 -2.343669 -2.321745 -2.303495 -2.300904 -2.300904 -2.300904 -1.945557 -1.940511 -1.937520 -1.937263 -1.937263 -1.937263 -1.620654 -1.622087 -1.624898 -1.625519 -1.625519 -1.625519 -1.350729 -1.354382 -1.359064 -1.359954 -1.359954 -1.359954 -1.124696 -1.128843 -1.133812 -1.134725 -1.134725 -1.134725 -0.934900 -0.938875 -0.943526 -0.944369 -0.944369 -0.944369 -0.775521 -0.779091 -0.783228 -0.783974 -0.783974 -0.783974 -0.641852 -0.644965 -0.648556 -0.649202 -0.649202 -0.649202 -0.529961 -0.532635 -0.535712 -0.536265 -0.536265 -0.536265 -0.436513 -0.438789 -0.441406 -0.441876 -0.441876 -0.441876 -0.358658 -0.360584 -0.362799 -0.363196 -0.363196 -0.363196 -0.293958 -0.295581 -0.297447 -0.297783 -0.297783 -0.297783 -0.240328 -0.241691 -0.243259 -0.243541 -0.243541 -0.243541 -0.195990 -0.197132 -0.198444 -0.198680 -0.198680 -0.198680 -0.159430 -0.160383 -0.161479 -0.161676 -0.161676 -0.161676 -0.129363 -0.130156 -0.131068 -0.131232 -0.131232 -0.131232 -0.104700 -0.105359 -0.106116 -0.106252 -0.106252 -0.106252 -0.084525 -0.085070 -0.085697 -0.085810 -0.085810 -0.085810 -0.068064 -0.068514 -0.069031 -0.069124 -0.069124 -0.069124 -0.054668 -0.055039 -0.055465 -0.055541 -0.055541 -0.055541 -0.043797 -0.044101 -0.044451 -0.044514 -0.044514 -0.044514 -0.034998 -0.035247 -0.035533 -0.035585 -0.035585 -0.035585 -0.027895 -0.028098 -0.028332 -0.028374 -0.028374 -0.028374 -0.022176 -0.022342 -0.022532 -0.022566 -0.022566 -0.022566 -0.017585 -0.017719 -0.017873 -0.017901 -0.017901 -0.017901 -0.013908 -0.014016 -0.014141 -0.014164 -0.014164 -0.014164 -0.010971 -0.011059 -0.011159 -0.011178 -0.011178 -0.011178 -0.008632 -0.008703 -0.008784 -0.008798 -0.008798 -0.008798 -0.006774 -0.006831 -0.006896 -0.006908 -0.006908 -0.006908 -0.005302 -0.005348 -0.005400 -0.005409 -0.005409 -0.005409 -0.004140 -0.004176 -0.004217 -0.004225 -0.004225 -0.004225 -0.003223 -0.003252 -0.003285 -0.003291 -0.003291 -0.003291 -0.002503 -0.002526 -0.002552 -0.002557 -0.002557 -0.002557 -0.001939 -0.001957 -0.001978 -0.001982 -0.001982 -0.001982 -0.001498 -0.001512 -0.001529 -0.001532 -0.001532 -0.001532 -0.001154 -0.001166 -0.001178 -0.001181 -0.001181 -0.001181 -0.000887 -0.000896 -0.000906 -0.000908 -0.000908 -0.000908 -0.000680 -0.000687 -0.000695 -0.000696 -0.000696 -0.000696 -0.000520 -0.000525 -0.000531 -0.000533 -0.000533 -0.000533 -0.000396 -0.000401 -0.000405 -0.000406 -0.000406 -0.000406 -0.000301 -0.000305 -0.000308 -0.000309 -0.000309 -0.000309 -0.000229 -0.000231 -0.000234 -0.000235 -0.000235 -0.000235 -0.000173 -0.000175 -0.000177 -0.000178 -0.000178 -0.000178 -0.000131 -0.000132 -0.000134 -0.000134 -0.000134 -0.000134 -0.000098 -0.000099 -0.000101 -0.000101 -0.000101 -0.000101 -0.000074 -0.000075 -0.000076 -0.000076 -0.000076 -0.000076 -0.000055 -0.000056 -0.000057 -0.000057 -0.000057 -0.000057 -0.000041 -0.000042 -0.000042 -0.000042 -0.000042 -0.000042 -0.000031 -0.000031 -0.000031 -0.000032 -0.000032 -0.000032 -0.000023 -0.000023 -0.000023 -0.000023 -0.000023 -0.000023 -0.000017 -0.000017 -0.000017 -0.000017 -0.000017 -0.000017 -0.000012 -0.000013 -0.000013 -0.000013 -0.000013 -0.000013 -0.000009 -0.000009 -0.000009 -0.000009 -0.000009 -0.000009 -0.000007 -0.000007 -0.000007 -0.000007 -0.000007 -0.000007 -0.000005 -0.000005 -0.000005 -0.000005 -0.000005 -0.000005 -0.000004 -0.000004 -0.000004 -0.000004 -0.000004 -0.000004 -0.000003 -0.000003 -0.000003 -0.000003 -0.000003 -0.000003 -0.000002 -0.000002 -0.000002 -0.000002 -0.000002 -0.000002 -0.000001 -0.000001 -0.000001 -0.000001 -0.000001 -0.000001 -0.000001 -0.000001 -0.000001 -0.000001 -0.000001 -0.000001 -0.000001 -0.000001 -0.000001 -0.000001 -0.000001 -0.000001 -0.000001 -0.000001 -0.000001 -0.000001 -0.000001 -0.000001 -0.000000 -0.000000 -0.000000 -0.000000 -0.000000 -0.000000 -0.000000 -0.000000 -0.000000 -0.000000 -0.000000 -0.000000 -0.000000 -0.000000 -0.000000 -0.000000 -0.000000 -0.000000 -0.000000 -0.000000 -0.000000 -0.000000 -0.000000 -0.000000 -0.000000 -0.000000 -0.000000 -0.000000 -0.000000 -0.000000 -0.000000 -0.000000 -0.000000 -0.000000 -0.000000 -0.000000 -0.000000 -0.000000 -0.000000 -0.000000 -0.000000 -0.000000 -0.000000 -0.000000 -0.000000 -0.000000 -0.000000 -0.000000 -0.000000 -0.000000 -0.000000 -0.000000 -0.000000 -0.000000 -0.000000 -0.000000 -0.000000 -0.000000 -0.000000 -0.000000 -0.000000 -0.000000 -0.000000 -0.000000 -0.000000 -0.000000 -0.000000 -0.000000 -0.000000 -0.000000 -0.000000 -0.000000 -0.000000 -0.000000 -0.000000 -0.000000 -0.000000 -0.000000 -0.000000 -0.000000 -0.000000 -0.000000 -0.000000 -0.000000 -0.000000 -0.000000 -0.000000 -0.000000 -0.000000 -0.000000 -0.000000 -0.000000 -0.000000 -0.000000 -0.000000 -0.000000 -0.000000 -0.000000 -0.000000 -0.000000 -0.000000 -0.000000 -0.000000 -0.000000 -0.000000 -0.000000 -0.000000 -0.000000 -0.000000 -0.000000 -0.000000 0.000000 0.000000 0.000000 -0.000000 -0.000000 -0.000000 0.000000 0.000000 0.000000 -0.000000 -0.000000 -0.000000 0.000000 0.000000 0.000000 -0.000000 -0.000000 -0.000000 0.000000 0.000000 0.000000 -0.000000 -0.000000 -0.000000 0.000000 0.000000 0.000000 -0.000000 -0.000000 -0.000000 0.000000 0.000000 0.000000 -0.000000 -0.000000 -0.000000 0.000000 0.000000 0.000000 -0.000000 -0.000000 -0.000000 0.000000 0.000000 0.000000 -0.000000 -0.000000 -0.000000 0.000000 0.000000 0.000000 -0.000000 -0.000000 -0.000000 0.000000 0.000000 0.000000 -0.000000 -0.000000 -0.000000 0.000000 0.000000 0.000000 -0.000000 -0.000000 -0.000000 0.000000 0.000000 0.000000 -0.000000 -0.000000 -0.000000 0.000000 0.000000 0.000000 -0.000000 -0.000000 -0.000000 0.000000 0.000000 0.000000 -0.000000 -0.000000 -0.000000 0.000000 0.000000 0.000000 -0.000000 -0.000000 -0.000000 0.000000 0.000000 0.000000 -0.000000 -0.000000 -0.000000 0.000000 0.000000 0.000000 -0.000000 -0.000000 -0.000000 0.000000 0.000000 0.000000 -0.000000 -0.000000 -0.000000 0.000000 0.000000 0.000000 -0.000000 -0.000000 -0.000000 0.000000 0.000000 0.000000 -0.000000 -0.000000 -0.000000 0.000000 0.000000 0.000000 -0.000000 -0.000000 -0.000000 0.000000 0.000000 0.000000 -0.000000 -0.000000 -0.000000 0.000000 0.000000 0.000000 -0.000000 -0.000000 -0.000000 0.000000 0.000000 0.000000 -0.000000 -0.000000 -0.000000 0.000000 0.000000 0.000000 -0.000000 -0.000000 -0.000000 0.000000 0.000000 0.000000 -0.000000 -0.000000 -0.000000 0.000000 0.000000 0.000000 -0.000000 -0.000000 -0.000000 0.000000 0.000000 0.000000 -0.000000 -0.000000 -0.000000 0.000000 0.000000 0.000000 -0.000000 -0.000000 -0.000000 0.000000 0.000000 0.000000 -0.000000 -0.000000 -0.000000 0.000000 0.000000 0.000000 -0.000000 -0.000000 -0.000000 0.000000 0.000000 0.000000 -0.000000 -0.000000 -0.000000 0.000000 0.000000 0.000000 -0.000000 -0.000000 -0.000000 0.000000 0.000000 0.000000 -0.000000 -0.000000 -0.000000 0.000000 0.000000 0.000000 0.000000 -0.000000 -0.000000 0.000000 0.000000 0.000000 0.000000 -0.000000 0.000000 0.000000 0.000000 0.000000 0.000000 0.000000 0.000000 0.000000 0.000000 0.000000 0.000000 0.000000 0.000000 0.000000 0.000000 0.000000 0.000000 0.000000 0.000000 0.000000 0.000000 0.000000 0.000000 0.000000 0.000000 0.000000 0.000000 0.000000 0.000000 0.000000 0.000000 0.000000 0.000000 0.000000 0.000000 0.000000 0.000000 0.000000 0.000000 0.000000 0.000000 0.000000 0.000000 0.000000 0.000000 0.000000 0.000000 0.000000 0.000000 0.000000 0.000000 0.000000 0.000000 0.000000 0.000000 0.000000 0.000000 0.000000 0.000000 0.000000 0.000000 0.000000 0.000000 0.000000 0.000001 0.000001 0.000001 0.000001 0.000001 0.000001 0.000001 0.000001 0.000002 0.000002 0.000002 0.000002 0.000002 0.000003 0.000003 0.000003 0.000003 0.000003 0.000004 0.000005 0.000005 0.000005 0.000005 0.000005 0.000008 0.000008 0.000008 0.000008 0.000008 0.000008 0.000013 0.000013 0.000014 0.000014 0.000014 0.000014 0.000022 0.000023 0.000024 0.000024 0.000024 0.000024 0.000037 0.000039 0.000040 0.000040 0.000040 0.000040 0.000062 0.000064 0.000067 0.000067 0.000067 0.000067 0.000102 0.000105 0.000110 0.000110 0.000110 0.000110 0.000166 0.000172 0.000178 0.000179 0.000179 0.000179 0.000268 0.000276 0.000286 0.000288 0.000288 0.000288 0.000428 0.000440 0.000455 0.000457 0.000457 0.000457 0.000674 0.000693 0.000715 0.000719 0.000719 0.000719 0.001051 0.001079 0.001111 0.001117 0.001117 0.001117 0.001620 0.001661 0.001708 0.001716 0.001716 0.001716 0.002469 0.002527 0.002595 0.002607 0.002607 0.002607 0.003719 0.003801 0.003897 0.003914 0.003914 0.003914 0.005537 0.005653 0.005786 0.005811 0.005811 0.005811 0.008149 0.008308 0.008492 0.008525 0.008525 0.008525 0.011851 0.012067 0.012316 0.012361 0.012361 0.012361 0.017031 0.017319 0.017651 0.017711 0.017711 0.017711 0.024181 0.024559 0.024995 0.025074 0.025074 0.025074 0.033915 0.034403 0.034966 0.035067 0.035067 0.035067 0.046981 0.047601 0.048313 0.048441 0.048441 0.048441 0.064268 0.065039 0.065924 0.066083 0.066083 0.066083 0.086797 0.087737 0.088814 0.089007 0.089007 0.089007 0.115706 0.116826 0.118108 0.118338 0.118338 0.118338 0.152205 0.153506 0.154993 0.155260 0.155260 0.155260 0.197508 0.198976 0.200654 0.200954 0.200954 0.200954 0.252733 0.254336 0.256164 0.256491 0.256491 0.256491 0.318767 0.320446 0.322355 0.322696 0.322696 0.322696 0.396090 0.397754 0.399642 0.399978 0.399978 0.399978 0.484565 0.486089 0.487809 0.488115 0.488115 0.488115 0.583200 0.584418 0.585784 0.586025 0.586025 0.586025 0.689886 0.690597 0.691375 0.691511 0.691511 0.691511 0.801146 0.801111 0.801033 0.801014 0.801014 0.801014 0.911900 0.910855 0.909618 0.909392 0.909392 0.909392 1.015288 1.012957 1.010246 1.009756 1.009756 1.009756 1.102591 1.098700 1.094207 1.093398 1.093398 1.093398 1.163265 1.157570 1.151021 1.149844 1.149844 1.149844 1.185143 1.177458 1.168643 1.167061 1.167061 1.167061 1.154824 1.145049 1.133857 1.131850 1.131850 1.131850 1.058256 1.046406 1.032858 1.030432 1.030432 1.030432 0.881519 0.867752 0.852035 0.849222 0.849222 0.849222 0.611790 0.596428 0.578909 0.575776 0.575776 0.575776 0.238434 0.221970 0.203215 0.199863 0.199863 0.199863 -0.245839 -0.262740 -0.281972 -0.285408 -0.285408 -0.285408 -0.843832 -0.860352 -0.879132 -0.882484 -0.882484 -0.882484 -1.552843 -1.568048 -1.585310 -1.588390 -1.588390 -1.588390 -2.363880 -2.376764 -2.391368 -2.393970 -2.393970 -2.393970 -3.261198 -3.270748 -3.281542 -3.283463 -3.283463 -3.283463 -4.222254 -4.227519 -4.233427 -4.234474 -4.234474 -4.234474 -5.218141 -5.218309 -5.218412 -5.218421 -5.218421 -5.218421 -6.214519 -6.208989 -6.202607 -6.201458 -6.201458 -6.201458 -7.173031 -7.161477 -7.148243 -7.145870 -7.145870 -7.145870 -8.053139 -8.035557 -8.015471 -8.011874 -8.011874 -8.011874 -8.814268 -8.791010 -8.764471 -8.759722 -8.759722 -8.759722 -9.418132 -9.389914 -9.357732 -9.351976 -9.351976 -9.351976 -9.831052 -9.798951 -9.762342 -9.755794 -9.755794 -9.755794 -10.026094 -9.991552 -9.952122 -9.945067 -9.945067 -9.945067 -9.984830 -9.949684 -9.909457 -9.902248 -9.902248 -9.902248 -9.698471 -9.665126 -9.626672 -9.619753 -9.619753 -9.619753 -9.168112 -9.140017 -9.106888 -9.100854 -9.100854 -9.100854 -8.403549 -8.386463 -8.364301 -8.360072 -8.360072 -8.360072 -7.419624 -7.424800 -7.424010 -7.423211 -7.423211 -7.423211 -6.227399 -6.280128 -6.321687 -6.327374 -6.327374 -6.327374 -4.811921 -4.978695 -5.104547 -5.121654 -5.121654 -5.121654 -3.061690 -3.571770 -3.829582 -3.863512 -3.863512 -3.863512 20810.857445 20810.857445 20810.857445 20437.240649 16240.717761 12633.662215 13382.001404 11854.972945 9633.376873 8859.586113 11157.069539 7987.531867 5684.561673 6419.879490 7221.720154 7693.011634 7231.377285 8605.564448 7185.251443 8367.675763 8106.311028 5103.472424 4164.517683 2216.658480 -2143.620190 413.215709 -16.168825 -1938.740092 -71.235205 -207.961766 1195.634245 1873.513540 1209.715323 -99.286112 -5187.466679 -2065.211121 910.259651 2112.589249 2668.713088 3053.994320 3802.692039 1370.723634 -2499.420473 -1412.453332 11.550634 723.768739 1416.819114 2978.340935 2914.283934 -2235.649847 -2973.371965 -1406.527772 -844.701818 -580.825912 -447.659643 -371.117237 -319.206895 -277.874668 -241.092665 -206.479892 -173.320919 -141.645347 -111.785880 -84.157994 -59.146757 -37.049115 -18.047552 -2.203118 10.538888 20.334868 27.423658 32.104569 34.714811 35.608013 35.135153 33.628803 31.391214 28.686333 25.735570 22.716852 19.766338 16.982098 14.429075 12.144678 10.144471 8.427569 6.981432 5.785897 4.816398 4.046364 3.448886 2.997757 2.667996 2.436011 2.279508 2.177258 2.108804 2.054158 1.993446 1.906356 1.770941 1.560663 1.236897 0.730355 -0.147331 -1.279350 -2.055180 -2.479831 -2.556347 -2.556347 -2.556347 21380.948206 21380.948206 21380.948206 21183.072533 18592.819165 14800.552012 14365.204872 13782.302747 13491.954847 14111.537245 15258.340915 13551.345390 12656.053829 12438.889081 12094.184869 12142.681253 11848.027805 12428.212610 11508.588207 10625.052759 10300.361395 9578.155539 8964.252171 8005.248802 6814.241970 6560.248078 5995.756805 5659.373430 5391.883069 5056.363938 4943.281400 4858.843477 4408.677282 3190.855684 1893.736401 1864.093805 2384.662481 2753.830998 2864.206687 2825.907620 2638.572985 1454.355050 -9.717774 121.684240 487.736728 789.896568 1078.686377 1371.712320 1090.789823 -535.326630 -1029.399521 -795.317502 -585.382992 -466.356377 -395.839130 -347.455947 -308.365995 -272.916856 -238.863699 -205.544215 -173.023535 -141.683633 -112.014652 -84.501563 -59.559935 -37.500464 -18.512577 -2.661772 10.102932 19.934337 27.067686 31.798791 34.461615 35.406934 34.983389 33.521793 31.323224 28.651018 25.726460 22.727743 19.791586 17.016803 14.469174 12.186954 10.186512 8.467673 7.018492 5.819281 4.845827 4.071802 3.470450 3.015639 2.682412 2.447172 2.287610 2.182498 2.111445 2.054662 1.992773 1.906622 1.776902 1.583202 1.301838 0.902609 0.368277 -0.247569 -0.809072 -1.170089 -1.236725 -1.236725 -1.236725 21754.392894 21754.392894 21754.392894 21679.874623 20884.047414 19192.068937 18257.775922 17644.169674 17413.272183 17284.285195 17139.363648 16795.322866 16396.812725 16060.742192 15744.221398 15420.347508 15073.417218 14718.422583 14263.668346 13748.058989 13277.764364 12832.715792 12402.409748 11900.545137 11296.043225 10682.807939 10005.225007 9279.335097 8539.065804 7795.420422 7112.926551 6484.846024 5816.331570 5079.540563 4357.610195 3854.904792 3548.692724 3308.004131 3048.473149 2731.671640 2314.922776 1770.506421 1253.963815 972.502830 876.601030 852.133372 833.609867 752.326841 505.313118 109.945095 -192.798496 -322.528828 -360.180087 -362.037388 -347.894087 -325.429986 -298.239019 -268.274543 -236.779053 -204.683336 -172.776908 -141.768409 -112.293465 -84.900887 -60.034066 -38.016223 -19.043260 -3.185086 9.605357 19.476923 26.660837 31.448968 34.171594 35.176255 34.808925 33.398405 31.244431 28.609625 25.715113 22.739384 19.819777 17.055947 14.514619 12.235013 10.234406 8.513436 7.060838 5.857470 4.879522 4.100950 3.495171 3.036144 2.698945 2.459968 2.296884 2.188465 2.114372 2.055003 1.991447 1.905630 1.780690 1.601697 1.357003 1.041207 0.661471 0.244851 -0.173462 -0.472836 -0.534626 -0.534626 -0.534626 21807.961283 21807.961283 21807.961283 21750.200579 21146.776030 19851.131265 18900.154038 18274.219468 17895.701324 17651.940367 17429.908395 17141.801076 16821.291117 16504.731849 16183.241151 15848.486052 15492.127032 15113.378110 14678.309067 14203.246338 13747.320480 13320.764077 12903.076462 12432.890943 11872.665479 11238.825230 10527.480294 9756.217078 8953.225679 8154.603787 7405.028313 6707.564731 6016.801234 5310.585034 4641.776456 4104.726446 3709.786916 3390.646839 3077.451821 2723.848607 2300.521825 1817.084951 1372.654446 1079.243586 931.617479 861.918300 802.501685 687.964183 464.590203 159.440328 -103.565948 -258.261194 -326.446592 -345.941694 -340.419737 -321.981921 -296.649694 -267.544716 -236.451644 -204.549859 -172.741997 -141.787661 -112.345113 -84.973054 -60.119157 -38.108570 -19.138210 -3.278709 9.516322 19.395045 26.587977 31.386284 34.119590 35.134854 34.777576 33.376196 31.230208 28.602105 25.712984 22.741385 19.824756 17.062902 14.522717 12.243592 10.242967 8.521623 7.068421 5.864312 4.885563 4.106177 3.499606 3.039824 2.701912 2.462264 2.298547 2.189532 2.114888 2.055040 1.991154 1.905324 1.781068 1.604293 1.365071 1.060758 0.700347 0.306812 -0.094206 -0.382791 -0.440850 -0.440850 -0.440850 21807.961283 21807.961283 21807.961283 21750.200579 21146.776030 19851.131265 18900.154038 18274.219468 17895.701324 17651.940367 17429.908395 17141.801076 16821.291117 16504.731849 16183.241151 15848.486052 15492.127032 15113.378110 14678.309067 14203.246338 13747.320480 13320.764077 12903.076462 12432.890943 11872.665479 11238.825230 10527.480294 9756.217078 8953.225679 8154.603787 7405.028313 6707.564731 6016.801234 5310.585034 4641.776456 4104.726446 3709.786916 3390.646839 3077.451821 2723.848607 2300.521825 1817.084951 1372.654446 1079.243586 931.617479 861.918300 802.501685 687.964183 464.590203 159.440328 -103.565948 -258.261194 -326.446592 -345.941694 -340.419737 -321.981921 -296.649694 -267.544716 -236.451644 -204.549859 -172.741997 -141.787661 -112.345113 -84.973054 -60.119157 -38.108570 -19.138210 -3.278709 9.516322 19.395045 26.587977 31.386284 34.119590 35.134854 34.777576 33.376196 31.230208 28.602105 25.712984 22.741385 19.824756 17.062902 14.522717 12.243592 10.242967 8.521623 7.068421 5.864312 4.885563 4.106177 3.499606 3.039824 2.701912 2.462264 2.298547 2.189532 2.114888 2.055040 1.991154 1.905324 1.781068 1.604293 1.365071 1.060758 0.700347 0.306812 -0.094206 -0.382791 -0.440850 -0.440850 -0.440850 21807.961283 21807.961283 21807.961283 21750.200579 21146.776030 19851.131265 18900.154038 18274.219468 17895.701324 17651.940367 17429.908395 17141.801076 16821.291117 16504.731849 16183.241151 15848.486052 15492.127032 15113.378110 14678.309067 14203.246338 13747.320480 13320.764077 12903.076462 12432.890943 11872.665479 11238.825230 10527.480294 9756.217078 8953.225679 8154.603787 7405.028313 6707.564731 6016.801234 5310.585034 4641.776456 4104.726446 3709.786916 3390.646839 3077.451821 2723.848607 2300.521825 1817.084951 1372.654446 1079.243586 931.617479 861.918300 802.501685 687.964183 464.590203 159.440328 -103.565948 -258.261194 -326.446592 -345.941694 -340.419737 -321.981921 -296.649694 -267.544716 -236.451644 -204.549859 -172.741997 -141.787661 -112.345113 -84.973054 -60.119157 -38.108570 -19.138210 -3.278709 9.516322 19.395045 26.587977 31.386284 34.119590 35.134854 34.777576 33.376196 31.230208 28.602105 25.712984 22.741385 19.824756 17.062902 14.522717 12.243592 10.242967 8.521623 7.068421 5.864312 4.885563 4.106177 3.499606 3.039824 2.701912 2.462264 2.298547 2.189532 2.114888 2.055040 1.991154 1.905324 1.781068 1.604293 1.365071 1.060758 0.700347 0.306812 -0.094206 -0.382791 -0.440850 -0.440850 -0.440850 13344.927785 13344.927785 13344.927785 13382.704811 13953.727108 14781.886112 14116.542935 12893.628543 11272.807834 11571.768465 12650.418175 10492.639435 10227.586377 10907.628009 9414.632172 7094.611791 6389.747021 5343.179674 5664.681894 4926.651009 3926.947736 3293.239406 1169.128004 365.630988 408.327528 392.777393 395.188096 445.949112 568.225927 801.281560 1283.546886 1460.974007 -499.440231 -1428.706872 -659.144523 -51.227846 573.628917 1284.914677 308.754875 -1226.430865 -862.747494 -190.158749 581.193308 613.968194 -1224.991584 -1590.934802 -599.019414 -121.570861 -1661.802369 -2527.776354 -2112.161398 -1821.113049 -1643.360642 -1527.505732 -1446.168465 -1386.602294 13462.153763 13462.153763 13462.153763 13536.941768 14438.405636 14475.411163 12024.562144 16423.931097 12104.688006 11096.046769 12157.304047 11359.700192 14944.140360 14791.045662 12292.328408 11891.583393 15047.824666 12219.596540 15146.141140 15252.660761 13456.465205 14092.823487 14257.697078 13107.426959 12736.665918 15113.076993 15638.992780 13201.264809 11155.799411 13395.181094 14112.635941 13429.478509 14365.137157 15094.518777 13318.651340 13852.406534 11838.885242 14726.388040 13044.281122 12824.427846 13455.261122 13697.481298 13590.551314 13334.780280 13146.607445 13856.778087 14910.294252 13428.297650 14822.819264 13324.370835 13150.452749 13425.648907 14068.820689 3123.578722 -770.351338 -2578.025971 13571.706215 13571.706215 13571.706215 13614.119912 14273.727410 14091.910644 12051.848627 12261.865135 11252.905023 12407.067019 13436.762790 11917.133717 13246.751543 11432.000436 10501.079738 11101.725744 12713.651210 14180.475019 12555.876946 12585.475696 13977.429730 12327.700558 11629.077745 12174.939283 12267.371918 12554.985753 11683.044982 12953.602315 12432.242575 13930.718541 14325.326882 13332.392873 13944.715140 12968.712139 13275.804761 13164.506166 14771.313493 11420.613073 12815.310185 13650.679958 15288.221406 13147.285141 13526.086352 13636.354461 14147.903462 14559.573777 13233.516697 13107.621273 13907.467486 12527.363782 14458.221435 14278.178755 5992.957279 8721.222160 -95.844810 46.369421 13612.800647 13612.800647 13612.800647 13642.785242 14265.739309 14578.504791 12893.669161 15650.977413 12303.629232 11945.428339 9176.955240 10849.021404 11282.877166 13168.886731 11596.081748 11507.314842 13644.022734 14389.199509 12501.342913 14089.686273 14323.216852 12913.482759 13464.403830 14423.637682 13696.194758 15078.408398 11737.904310 12540.658919 13931.446819 12166.595531 13123.230668 13300.259403 15164.505592 13854.980649 12947.957311 15363.990835 14525.101331 13156.531645 12942.822615 14546.036596 11832.253469 14106.166512 15354.364304 13642.311550 14649.611604 12150.612745 12299.428792 13963.857700 14414.253912 13507.448591 12705.031953 13595.136944 1285.616899 11829.676645 3809.670493 3760.809799 13614.212820 13614.212820 13614.212820 13573.825690 13215.292741 13083.248386 10107