<VTKFile type="PolyData">
<PolyData>
<Piece NumberOfPoints="8632" NumberOfVerts="8632" NumberOfLines="0" NumberOfStrips="0" NumberOfPolys="0">
<PointData>
<DataArray type="Float64" Name="Pressure" format="ascii">
 12982.182894 12982.182894 12982.182894 12972.922381 12869.620316 12607.462442 12320.560957 12004.231309 11653.264328 11253.649962 10795.460386 10286.175174 9733.015906 9140.419860 8519.263094 7879.770565 7219.892654 6540.718747 5861.294668 5209.047534 4605.147936 4045.903949 3510.210959 2995.633592 2519.718757 2096.167650 1729.436011 1420.033365 1160.912702 932.535172 704.370600 458.283999 233.318583 97.877560 58.332243 70.404669 78.835250 28.628637 -90.780424 -204.061360 -257.114905 -279.951385 -337.091419 -476.331472 -660.436102 -812.802578 -945.997580 -1116.949511 -1313.654722 -1453.435505 -1511.390693 -1515.395667 -1490.032375 -1448.916295 -1399.342895 -1344.764008 -1286.806499 -1226.933500 -1166.666664 -1106.983803 -1048.352193 -990.999693 -935.059469 -880.632295 -827.808237 -776.671694 -727.300392 -679.762828 -634.115926 -590.403512 -548.655648 -508.888714 -471.106021 -435.298782 -401.447261 -369.521996 -339.485012 -311.290980 -284.888291 -260.220047 -237.224973 -215.838240 -195.992229 -177.617231 -160.642087 -144.994781 -130.602980 -117.394530 -105.297896 -94.242563 -84.159385 -74.980885 -66.641512 -59.077851 -52.228791 -46.035658 -40.442304 -35.395183 -30.843420 -26.738936 -23.036742 -19.695738 -16.680721 -13.967068 -11.549147 -9.440715 -7.620543 -6.450557 -6.229784 -6.229784 -6.229784 12982.182894 12982.182894 12982.182894 12972.922381 12869.620316 12607.462442 12320.560957 12004.231309 11653.264328 11253.649962 10795.460386 10286.175174 9733.015906 9140.419860 8519.263094 7879.770565 7219.892654 6540.718747 5861.294668 5209.047534 4605.147936 4045.903949 3510.210959 2995.633592 2519.718757 2096.167650 1729.436011 1420.033365 1160.912702 932.535172 704.370600 458.283999 233.318583 97.877560 58.332243 70.404669 78.835250 28.628637 -90.780424 -204.061360 -257.114905 -279.951385 -337.091419 -476.331472 -660.436102 -812.802578 -945.997580 -1116.949511 -1313.654722 -1453.435505 -1511.390693 -1515.395667 -1490.032375 -1448.916295 -1399.342895 -1344.764008 -1286.806499 -1226.933500 -1166.666664 -1106.983803 -1048.352193 -990.999693 -935.059469 -880.632295 -827.808237 -776.671694 -727.300392 -679.762828 -634.115926 -590.403512 -548.655648 -508.888714 -471.106021 -435.298782 -401.447261 -369.521996 -339.485012 -311.290980 -284.888291 -260.220047 -237.224973 -215.838240 -195.992229 -177.617231 -160.642087 -144.994781 -130.602980 -117.394530 -105.297896 -94.242563 -84.159385 -74.980885 -66.641512 -59.077851 -52.228791 -46.035658 -40.442304 -35.395183 -30.843420 -26.738936 -23.036742 -19.695738 -16.680721 -13.967068 -11.549147 -9.440715 -7.620543 -6.450557 -6.229784 -6.229784 -6.229784 12982.182894 12982.182894 12982.182894 12972.922381 12869.620316 12607.462442 12320.560957 12004.231309 11653.264328 11253.649962 10795.460386 10286.175174 9733.015906 9140.419860 8519.263094 7879.770565 7219.892654 6540.718747 5861.294668 5209.047534 4605.147936 4045.903949 3510.210959 2995.633592 2519.718757 2096.167650 1729.436011 1420.033365 1160.912702 932.535172 704.370600 458.283999 233.318583 97.877560 58.332243 70.404669 78.835250 28.628637 -90.780424 -204.061360 -257.114905 -279.951385 -337.091419 -476.331472 -660.436102 -812.802578 -945.997580 -1116.949511 -1313.654722 -1453.435505 -1511.390693 -1515.395667 -1490.032375 -1448.916295 -1399.342895 -1344.764008 -1286.806499 -1226.933500 -1166.666664 -1106.983803 -1048.352193 -990.999693 -935.059469 -880.632295 -827.808237 -776.671694 -727.300392 -679.762828 -634.115926 -590.403512 -548.655648 -508.888714 -471.106021 -435.298782 -401.447261 -369.521996 -339.485012 -311.290980 -284.888291 -260.220047 -237.224973 -215.838240 -195.992229 -177.617231 -160.642087 -144.994781 -130.602980 -117.394530 -105.297896 -94.242563 -84.159385 -74.980885 -66.641512 -59.077851 -52.228791 -46.035658 -40.442304 -35.395183 -30.843420 -26.738936 -23.036742 -19.695738 -16.680721 -13.967068 -11.549147 -9.440715 -7.620543 -6.450557 -6.229784 -6.229784 -6.229784 12984.881146 12984.881146 12984.881146 12975.439641 12868.707258 12598.828067 12306.734232 11993.277042 11652.855116 11263.485075 10804.884332 10296.472768 9742.392999 9145.470812 8521.579574 7887.185928 7233.632608 6552.699043 5868.756940 5214.873347 4618.675567 4074.749908 3543.726915 3022.579481 2538.898750 2110.556610 1739.947461 1429.069623 1172.200649 949.616699 723.745228 460.006913 207.082725 68.590495 44.431856 74.961147 100.815160 57.913872 -97.352951 -226.961251 -266.840823 -267.306016 -309.127753 -456.701598 -679.598831 -820.477836 -932.074885 -1076.153234 -1320.385478 -1481.896966 -1530.956791 -1526.056380 -1495.757844 -1452.149943 -1401.436093 -1346.355039 -1287.894895 -1227.499962 -1166.902238 -1107.068560 -1048.373587 -990.994954 -935.043638 -880.611359 -827.784604 -776.646387 -727.273916 -679.735495 -634.087984 -590.375180 -548.627129 -508.860194 -471.077673 -435.270758 -401.419696 -369.495007 -339.458701 -311.265431 -284.863576 -260.196226 -237.202093 -215.816337 -195.971331 -177.597356 -160.623245 -144.976975 -130.586205 -117.378776 -105.283147 -94.228800 -84.146582 -74.969013 -66.630540 -59.067745 -52.219515 -46.027171 -40.434558 -35.388113 -30.836916 -26.732775 -23.030421 -19.688047 -16.668824 -13.945115 -11.511470 -9.392363 -7.580918 -6.419212 -6.200263 -6.200263 -6.200263 13014.446815 13014.446815 13014.446815 13002.000891 12850.176390 12469.385650 12093.432142 11821.685563 11636.979534 11374.926327 10877.796712 10372.914915 9817.682626 9153.455249 8486.963005 7936.444462 7387.594199 6680.616804 5925.390535 5238.848531 4747.584995 4436.675495 3982.714921 3361.614855 2770.786644 2283.816545 1862.635983 1529.204165 1298.068411 1154.829919 1027.983817 535.768807 -238.038920 -323.524254 -121.071966 127.892942 392.911416 507.522861 -204.787903 -629.428347 -388.514240 -117.874282 171.001820 -169.333992 -994.042030 -959.326307 -597.025088 -538.716018 -1461.470179 -1847.399028 -1749.269055 -1641.599443 -1557.693793 -1487.193696 -1424.601793 -1365.722170 -1301.430988 -1233.396292 -1169.256966 -1107.893864 -1048.576146 -990.942792 -934.883450 -880.401293 -827.548022 -776.393243 -727.009132 -679.462174 -633.808578 -590.091880 -548.341965 -508.575042 -470.794239 -434.990571 -401.144104 -369.225183 -339.195651 -311.010011 -284.616501 -259.958085 -236.973360 -215.597381 -195.762423 -177.398677 -160.434896 -144.798982 -130.418526 -117.221306 -105.135729 -94.091227 -84.018606 -74.850351 -66.520878 -58.966743 -52.126807 -45.942353 -40.357152 -35.317473 -30.771968 -26.671357 -22.967597 -19.611880 -16.550132 -13.716738 -11.045119 -8.758058 -7.091865 -6.060401 -5.876470 -5.876470 -5.876470 13060.324746 13060.324746 13060.324746 13041.108482 12835.188032 12277.619117 11580.245716 11483.215708 11712.464314 11935.094042 10622.949683 10418.142355 9791.109860 8872.172556 8184.542897 7799.677269 7739.192152 6825.260824 5841.211818 5114.693590 4588.150542 5198.671835 4858.941665 4005.356833 3066.261714 2570.648084 2023.232830 1654.943679 1455.213626 1427.964139 1651.841650 820.353158 -1070.814312 -997.218273 -329.510824 192.780917 814.167827 1160.378012 -366.836081 -1245.649056 -577.763163 95.850341 886.337940 188.702983 -1493.431247 -1192.220841 -212.039562 -378.341294 -2158.517173 -2435.074936 -2010.316699 -1777.822064 -1630.425827 -1528.478134 -1452.887295 -1394.516749 -1327.543912 -1243.877298 -1172.996885 -1109.221326 -1048.956269 -990.942612 -934.724814 -880.171765 -827.282653 -776.106736 -726.708449 -679.151401 -633.490737 -589.769563 -548.017525 -508.250631 -470.471808 -434.671860 -400.830644 -368.918305 -338.896499 -310.719554 -284.335551 -259.687311 -236.713297 -215.348447 -195.524924 -177.172821 -160.220794 -144.596662 -130.227940 -117.042335 -104.968191 -93.934886 -83.873180 -74.715516 -66.396277 -58.851985 -52.021468 -45.845957 -40.269120 -35.236968 -30.697517 -26.599852 -22.891739 -19.513515 -16.382166 -13.348655 -10.042510 -7.590161 -6.326017 -5.565326 -5.425899 -5.425899 -5.425899 -7.112464 -6.019381 -5.441446 -5.363192 -5.363192 -5.363192 -5.998068 -5.377328 -4.987473 -4.934065 -4.934065 -4.934065 -4.682950 -4.471788 -4.298052 -4.273540 -4.273540 -4.273540 -3.822510 -3.744183 -3.676616 -3.666632 -3.666632 -3.666632 -3.179470 -3.152916 -3.130824 -3.127689 -3.127689 -3.127689 -2.666943 -2.660919 -2.657405 -2.657113 -2.657113 -2.657113 -2.243935 -2.245833 -2.249427 -2.250214 -2.250214 -2.250214 -1.888787 -1.893427 -1.899347 -1.900470 -1.900470 -1.900470 -1.588360 -1.593634 -1.599939 -1.601096 -1.601096 -1.601096 -1.333568 -1.338651 -1.344593 -1.345670 -1.345670 -1.345670 -1.117464 -1.122066 -1.127394 -1.128355 -1.128355 -1.128355 -0.934392 -0.938440 -0.943106 -0.943946 -0.943946 -0.943946 -0.779582 -0.783091 -0.787128 -0.787854 -0.787854 -0.787854 -0.648948 -0.651966 -0.655434 -0.656057 -0.656057 -0.656057 -0.538967 -0.541547 -0.544512 -0.545044 -0.545044 -0.545044 -0.446592 -0.448789 -0.451314 -0.451767 -0.451767 -0.451767 -0.369190 -0.371055 -0.373198 -0.373583 -0.373583 -0.373583 -0.304491 -0.306070 -0.307884 -0.308210 -0.308210 -0.308210 -0.250543 -0.251876 -0.253407 -0.253683 -0.253683 -0.253683 -0.205669 -0.206791 -0.208081 -0.208312 -0.208312 -0.208312 -0.168435 -0.169377 -0.170460 -0.170655 -0.170655 -0.170655 -0.137616 -0.138405 -0.139312 -0.139475 -0.139475 -0.139475 -0.112170 -0.112829 -0.113586 -0.113723 -0.113723 -0.113723 -0.091212 -0.091761 -0.092392 -0.092505 -0.092505 -0.092505 -0.073993 -0.074449 -0.074974 -0.075068 -0.075068 -0.075068 -0.059882 -0.060260 -0.060695 -0.060773 -0.060773 -0.060773 -0.048346 -0.048658 -0.049018 -0.049082 -0.049082 -0.049082 -0.038939 -0.039196 -0.039492 -0.039546 -0.039546 -0.039546 -0.031287 -0.031498 -0.031742 -0.031786 -0.031786 -0.031786 -0.025078 -0.025252 -0.025451 -0.025487 -0.025487 -0.025487 -0.020053 -0.020195 -0.020358 -0.020388 -0.020388 -0.020388 -0.015996 -0.016112 -0.016245 -0.016269 -0.016269 -0.016269 -0.012729 -0.012823 -0.012932 -0.012951 -0.012951 -0.012951 -0.010105 -0.010181 -0.010269 -0.010285 -0.010285 -0.010285 -0.008002 -0.008064 -0.008135 -0.008148 -0.008148 -0.008148 -0.006321 -0.006371 -0.006429 -0.006439 -0.006439 -0.006439 -0.004981 -0.005022 -0.005068 -0.005076 -0.005076 -0.005076 -0.003916 -0.003948 -0.003986 -0.003992 -0.003992 -0.003992 -0.003071 -0.003097 -0.003127 -0.003132 -0.003132 -0.003132 -0.002402 -0.002423 -0.002447 -0.002451 -0.002451 -0.002451 -0.001875 -0.001891 -0.001910 -0.001914 -0.001914 -0.001914 -0.001459 -0.001473 -0.001488 -0.001490 -0.001490 -0.001490 -0.001133 -0.001144 -0.001156 -0.001158 -0.001158 -0.001158 -0.000878 -0.000886 -0.000896 -0.000897 -0.000897 -0.000897 -0.000678 -0.000685 -0.000692 -0.000694 -0.000694 -0.000694 -0.000523 -0.000528 -0.000534 -0.000535 -0.000535 -0.000535 -0.000402 -0.000406 -0.000411 -0.000411 -0.000411 -0.000411 -0.000308 -0.000312 -0.000315 -0.000316 -0.000316 -0.000316 -0.000236 -0.000238 -0.000241 -0.000242 -0.000242 -0.000242 -0.000180 -0.000182 -0.000184 -0.000185 -0.000185 -0.000185 -0.000137 -0.000139 -0.000140 -0.000141 -0.000141 -0.000141 -0.000104 -0.000105 -0.000107 -0.000107 -0.000107 -0.000107 -0.000079 -0.000080 -0.000081 -0.000081 -0.000081 -0.000081 -0.000060 -0.000060 -0.000061 -0.000061 -0.000061 -0.000061 -0.000045 -0.000045 -0.000046 -0.000046 -0.000046 -0.000046 -0.000034 -0.000034 -0.000035 -0.000035 -0.000035 -0.000035 -0.000025 -0.000026 -0.000026 -0.000026 -0.000026 -0.000026 -0.000019 -0.000019 -0.000019 -0.000020 -0.000020 -0.000020 -0.000014 -0.000014 -0.000015 -0.000015 -0.000015 -0.000015 -0.000011 -0.000011 -0.000011 -0.000011 -0.000011 -0.000011 -0.000008 -0.000008 -0.000008 -0.000008 -0.000008 -0.000008 -0.000006 -0.000006 -0.000006 -0.000006 -0.000006 -0.000006 -0.000004 -0.000004 -0.000004 -0.000004 -0.000004 -0.000004 -0.000003 -0.000003 -0.000003 -0.000003 -0.000003 -0.000003 -0.000002 -0.000002 -0.000002 -0.000002 -0.000002 -0.000002 -0.000002 -0.000002 -0.000002 -0.000002 -0.000002 -0.000002 -0.000001 -0.000001 -0.000001 -0.000001 -0.000001 -0.000001 -0.000001 -0.000001 -0.000001 -0.000001 -0.000001 -0.000001 -0.000001 -0.000001 -0.000001 -0.000001 -0.000001 -0.000001 -0.000000 -0.000000 -0.000000 -0.000000 -0.000000 -0.000000 -0.000000 -0.000000 -0.000000 -0.000000 -0.000000 -0.000000 -0.000000 -0.000000 -0.000000 -0.000000 -0.000000 -0.000000 -0.000000 -0.000000 -0.000000 -0.000000 -0.000000 -0.000000 -0.000000 -0.000000 -0.000000 -0.000000 -0.000000 -0.000000 -0.000000 -0.000000 -0.000000 -0.000000 -0.000000 -0.000000 -0.000000 -0.000000 -0.000000 -0.000000 -0.000000 -0.000000 -0.000000 -0.000000 -0.000000 -0.000000 -0.000000 -0.000000 -0.000000 -0.000000 -0.000000 -0.000000 -0.000000 -0.000000 -0.000000 -0.000000 -0.000000 -0.000000 -0.000000 -0.000000 -0.000000 -0.000000 -0.000000 -0.000000 -0.000000 -0.000000 -0.000000 -0.000000 -0.000000 -0.000000 -0.000000 -0.000000 -0.000000 -0.000000 -0.000000 -0.000000 -0.000000 -0.000000 -0.000000 -0.000000 -0.000000 -0.000000 -0.000000 -0.000000 -0.000000 -0.000000 -0.000000 -0.000000 -0.000000 -0.000000 -0.000000 -0.000000 -0.000000 -0.000000 -0.000000 -0.000000 -0.000000 -0.000000 -0.000000 -0.000000 -0.000000 -0.000000 -0.000000 -0.000000 -0.000000 -0.000000 -0.000000 -0.000000 -0.000000 -0.000000 -0.000000 -0.000000 -0.000000 -0.000000 -0.000000 -0.000000 -0.000000 0.000000 0.000000 0.000000 -0.000000 -0.000000 -0.000000 0.000000 0.000000 0.000000 -0.000000 -0.000000 -0.000000 0.000000 0.000000 0.000000 -0.000000 -0.000000 -0.000000 0.000000 0.000000 0.000000 -0.000000 -0.000000 -0.000000 0.000000 0.000000 0.000000 -0.000000 -0.000000 -0.000000 0.000000 0.000000 0.000000 -0.000000 -0.000000 -0.000000 0.000000 0.000000 0.000000 -0.000000 -0.000000 -0.000000 0.000000 0.000000 0.000000 -0.000000 -0.000000 -0.000000 0.000000 0.000000 0.000000 -0.000000 -0.000000 -0.000000 0.000000 0.000000 0.000000 -0.000000 -0.000000 -0.000000 0.000000 0.000000 0.000000 -0.000000 -0.000000 -0.000000 0.000000 0.000000 0.000000 -0.000000 -0.000000 -0.000000 0.000000 0.000000 0.000000 -0.000000 -0.000000 -0.000000 0.000000 0.000000 0.000000 -0.000000 -0.000000 -0.000000 0.000000 0.000000 0.000000 -0.000000 -0.000000 -0.000000 0.000000 0.000000 0.000000 -0.000000 -0.000000 -0.000000 0.000000 0.000000 0.000000 -0.000000 -0.000000 -0.000000 0.000000 0.000000 0.000000 -0.000000 -0.000000 -0.000000 0.000000 0.000000 0.000000 -0.000000 -0.000000 -0.000000 0.000000 0.000000 0.000000 -0.000000 -0.000000 -0.000000 0.000000 0.000000 0.000000 -0.000000 -0.000000 -0.000000 0.000000 0.000000 0.000000 -0.000000 -0.000000 -0.000000 0.000000 0.000000 0.000000 -0.000000 -0.000000 -0.000000 0.000000 0.000000 0.000000 0.000000 -0.000000 -0.000000 0.000000 0.000000 0.000000 0.000000 0.000000 0.000000 0.000000 0.000000 0.000000 0.000000 0.000000 0.000000 0.000000 0.000000 0.000000 0.000000 0.000000 0.000000 0.000000 0.000000 0.000000 0.000000 0.000000 0.000000 0.000000 0.000000 0.000000 0.000000 0.000000 0.000000 0.000000 0.000000 0.000000 0.000000 0.000000 0.000000 0.000000 0.000000 0.000000 0.000000 0.000000 0.000000 0.000000 0.000000 0.000000 0.000000 0.000000 0.000000 0.000000 0.000000 0.000000 0.000000 0.000000 0.000000 0.000000 0.000000 0.000000 0.000000 0.000000 0.000000 0.000000 0.000000 0.000000 0.000000 0.000000 0.000000 0.000000 0.000000 0.000000 0.000001 0.000001 0.000001 0.000001 0.000001 0.000001 0.000001 0.000001 0.000001 0.000001 0.000001 0.000001 0.000002 0.000002 0.000002 0.000002 0.000002 0.000002 0.000003 0.000003 0.000003 0.000003 0.000003 0.000003 0.000004 0.000004 0.000005 0.000005 0.000005 0.000005 0.000007 0.000007 0.000008 0.000008 0.000008 0.000008 0.000011 0.000012 0.000012 0.000012 0.000012 0.000012 0.000018 0.000019 0.000020 0.000020 0.000020 0.000020 0.000029 0.000030 0.000031 0.000031 0.000031 0.000031 0.000046 0.000048 0.000049 0.000050 0.000050 0.000050 0.000073 0.000075 0.000077 0.000077 0.000077 0.000077 0.000113 0.000116 0.000119 0.000120 0.000120 0.000120 0.000173 0.000178 0.000183 0.000184 0.000184 0.000184 0.000264 0.000270 0.000278 0.000279 0.000279 0.000279 0.000398 0.000407 0.000418 0.000420 0.000420 0.000420 0.000596 0.000609 0.000624 0.000627 0.000627 0.000627 0.000883 0.000901 0.000922 0.000926 0.000926 0.000926 0.001296 0.001322 0.001352 0.001357 0.001357 0.001357 0.001886 0.001921 0.001962 0.001970 0.001970 0.001970 0.002718 0.002767 0.002822 0.002832 0.002832 0.002832 0.003881 0.003946 0.004021 0.004035 0.004035 0.004035 0.005489 0.005576 0.005675 0.005693 0.005693 0.005693 0.007689 0.007803 0.007934 0.007958 0.007958 0.007958 0.010667 0.010815 0.010985 0.011016 0.011016 0.011016 0.014654 0.014843 0.015061 0.015100 0.015100 0.015100 0.019933 0.020172 0.020447 0.020497 0.020497 0.020497 0.026843 0.027141 0.027484 0.027546 0.027546 0.027546 0.035784 0.036149 0.036570 0.036645 0.036645 0.036645 0.047212 0.047654 0.048161 0.048252 0.048252 0.048252 0.061642 0.062166 0.062766 0.062874 0.062874 0.062874 0.079626 0.080236 0.080934 0.081059 0.081059 0.081059 0.101742 0.102436 0.103230 0.103373 0.103373 0.103373 0.128557 0.129329 0.130211 0.130368 0.130368 0.130368 0.160589 0.161423 0.162374 0.162544 0.162544 0.162544 0.198247 0.199118 0.200109 0.200286 0.200286 0.200286 0.241766 0.242635 0.243622 0.243798 0.243798 0.243798 0.291118 0.291933 0.292855 0.293019 0.293019 0.293019 0.345920 0.346612 0.347392 0.347530 0.347530 0.347530 0.405326 0.405812 0.406353 0.406449 0.406449 0.406449 0.467922 0.468102 0.468291 0.468323 0.468323 0.468323 0.531619 0.531379 0.531085 0.531031 0.531031 0.531031 0.593559 0.592775 0.591857 0.591691 0.591691 0.591691 0.650048 0.648589 0.646900 0.646595 0.646595 0.646595 0.696517 0.694256 0.691650 0.691181 0.691181 0.691181 0.727538 0.724357 0.720699 0.720042 0.720042 0.720042 0.736893 0.732693 0.727874 0.727010 0.727010 0.727010 0.717712 0.712429 0.706375 0.705289 0.705289 0.705289 0.662693 0.656304 0.648991 0.647681 0.647681 0.647681 0.564393 0.556929 0.548396 0.546868 0.546868 0.546868 0.415595 0.407154 0.397511 0.395785 0.395785 0.395785 0.209745 0.200494 0.189935 0.188046 0.188046 0.188046 -0.058569 -0.068387 -0.079584 -0.081586 -0.081586 -0.081586 -0.393112 -0.403179 -0.414650 -0.416701 -0.416701 -0.416701 -0.795500 -0.805430 -0.816736 -0.818757 -0.818757 -0.818757 -1.264746 -1.274097 -1.284734 -1.286633 -1.286633 -1.286633 -1.796880 -1.805169 -1.814588 -1.816269 -1.816269 -1.816269 -2.384688 -2.391417 -2.399051 -2.400412 -2.400412 -2.400412 -3.017603 -3.022283 -3.027575 -3.028517 -3.028517 -3.028517 -3.681771 -3.683952 -3.686393 -3.686825 -3.686825 -3.686825 -4.360322 -4.359623 -4.358782 -4.358626 -4.358626 -4.358626 -5.033836 -5.029976 -5.025533 -5.024734 -5.024734 -5.024734 -5.681010 -5.673833 -5.665612 -5.664138 -5.664138 -5.664138 -6.279496 -6.268991 -6.256982 -6.254831 -6.254831 -6.254831 -6.806873 -6.793189 -6.777563 -6.774766 -6.774766 -6.774766 -7.241705 -7.225159 -7.206275 -7.202895 -7.202895 -7.202895 -7.564623 -7.545700 -7.524105 -7.520242 -7.520242 -7.520242 -7.759359 -7.738710 -7.715140 -7.710922 -7.710922 -7.710922 -7.813656 -7.792113 -7.767491 -7.763082 -7.763082 -7.763082 -7.719961 -7.698585 -7.674065 -7.669665 -7.669665 -7.669665 -7.475797 -7.456026 -7.433125 -7.428994 -7.428994 -7.428994 -7.083603 -7.067657 -7.048615 -7.045124 -7.045124 -7.045124 -6.549704 -6.541577 -6.530250 -6.528019 -6.528019 -6.528019 -5.881573 -5.889508 -5.893449 -5.893652 -5.893652 -5.893652 -5.081308 -5.124363 -5.159354 -5.164284 -5.164284 -5.164284 -4.129009 -4.257742 -4.355955 -4.369433 -4.369433 -4.369433 -2.928483 -3.317733 -3.517806 -3.544260 -3.544260 -3.544260 19230.263627 19230.263627 19230.263627 19122.703813 18155.185942 17434.588664 18062.740621 16779.264142 17707.708112 16164.643214 16102.150809 15477.530522 15161.441056 18414.639077 18555.000881 20077.709210 18667.582941 17544.090249 18781.573107 19138.423665 15732.714267 11882.685480 7034.331179 6962.826339 511.542201 1318.571040 3070.203677 3771.163554 4097.514378 3798.333913 3481.334202 3233.405474 3058.432512 2938.200106 2853.536077 2793.592041 2767.354844 2831.104694 3193.806157 4262.833952 1230.853078 -2989.528915 -1505.795572 -18.367163 801.061109 1754.780001 3760.947118 1533.181974 -3409.783040 -2528.453630 -1263.628266 -778.091594 -551.127003 -437.600366 -373.186073 -329.970295 -295.795144 -265.464639 -236.855049 -209.202704 -182.350286 -156.409867 -131.605759 -108.195573 -86.426802 -66.511201 -48.609615 -32.823997 -19.194927 -7.703454 1.723681 9.206365 14.901837 18.994595 21.686232 23.185782 23.701068 23.431385 22.561709 21.258520 19.667160 17.910622 16.089551 14.283215 12.551217 10.935671 9.463647 8.149674 6.998170 6.005677 5.162838 4.456079 3.869008 3.383520 2.980673 2.641345 2.346732 2.078682 1.819858 1.553617 1.263293 0.930126 0.527859 0.009385 -0.757693 -1.667159 -2.284883 -2.627565 -2.689273 -2.689273 -2.689273 19557.159113 19557.159113 19557.159113 19476.035994 18663.517665 17272.154015 16888.286887 17136.028180 17533.707109 16207.864112 14662.069127 14141.126428 15202.039527 16117.617428 16623.400380 16827.142931 15396.324078 14986.021457 15081.719125 15337.427748 13913.257858 12905.177748 11566.783721 10690.851257 8240.951694 7019.680566 6223.432736 5500.944300 4866.333581 4321.021036 3863.865783 3511.724141 3253.616031 3067.611405 2930.280318 2822.510757 2735.235525 2676.755567 2658.664837 2552.610453 1343.867268 -82.655225 78.654051 456.151467 810.399259 1169.830369 1492.555457 667.199053 -903.792761 -981.777149 -754.011651 -563.176339 -457.249411 -395.633315 -354.213559 -321.324949 -291.839053 -263.663631 -236.062337 -208.896994 -182.293548 -156.492096 -131.774158 -108.422329 -86.694630 -66.807094 -48.922360 -33.143375 -19.511617 -8.009200 1.435861 8.942014 14.664972 18.787715 21.510400 23.040780 23.585597 23.343293 22.498232 21.216507 19.643288 17.901574 16.092157 14.294565 12.568725 10.957117 9.487183 8.173812 7.021756 6.027846 5.182976 4.473778 3.884026 3.395748 2.990113 2.648105 2.351042 2.080970 1.820931 1.555098 1.268631 0.947014 0.574425 0.131325 -0.391033 -0.949631 -1.447638 -1.768431 -1.827309 -1.827309 -1.827309 19782.508811 19782.508811 19782.508811 19739.556860 19281.407291 18328.476568 17702.695064 17319.512046 16832.294290 16224.846784 15666.421906 15280.503569 15093.863832 14966.448260 14758.946152 14442.047622 14004.367874 13590.058466 13263.240734 12903.569986 12385.964042 11808.280104 11175.565511 10404.261223 9393.630301 8310.602130 7280.534391 6327.598396 5488.131107 4780.957956 4208.862550 3764.720017 3431.742448 3185.886312 3000.211939 2848.349967 2706.375790 2551.705346 2354.477754 2051.389383 1592.493246 1137.293406 900.044523 832.685970 827.185160 814.979407 705.168614 395.307464 -6.180334 -255.529922 -350.135970 -374.492339 -371.326884 -356.743129 -336.551845 -313.257589 -288.140660 -261.979735 -235.326847 -208.625173 -182.263875 -156.601845 -131.973472 -108.684219 -87.001556 -67.145237 -49.279414 -33.507918 -19.873133 -8.358324 1.107074 8.639886 14.394099 18.550968 21.309018 22.874543 23.453051 23.242010 22.425079 21.167908 19.615463 17.890745 16.094713 14.307181 12.588447 10.981404 9.513916 8.201285 7.048637 6.053142 5.205976 4.494008 3.901203 3.409742 3.000918 2.655831 2.355929 2.083452 1.821808 1.555935 1.272683 0.961325 0.614375 0.229495 -0.186335 -0.612163 -1.023592 -1.310549 -1.367995 -1.367995 -1.367995 19816.102996 19816.102996 19816.102996 19778.169940 19382.306179 18522.255858 17861.368360 17343.163201 16848.398045 16331.821334 15848.262884 15453.532274 15152.274384 14878.772580 14574.442830 14221.473729 13823.150036 13434.170411 13068.027452 12666.582969 12177.931014 11630.953486 11019.266592 10287.606739 9392.581919 8395.614142 7386.911216 6431.053470 5576.280019 4850.676713 4261.994650 3803.901231 3459.403693 3204.271838 3011.064033 2852.319928 2701.973232 2533.908777 2317.176278 2015.440265 1627.400419 1251.408865 1003.884906 884.909047 830.614853 771.174194 634.490661 377.484441 67.422042 -167.651413 -294.239000 -346.023010 -358.035558 -350.675611 -333.787617 -311.992661 -287.559924 -261.715290 -235.212030 -208.584182 -182.262047 -156.623062 -132.009844 -108.731388 -87.056601 -67.205787 -49.343316 -33.573152 -19.937829 -8.420813 1.048210 8.585780 14.345574 18.508539 21.272910 22.844719 23.429255 23.223809 22.411915 21.159144 19.610424 17.888755 16.095126 14.309403 12.591949 10.985729 9.518686 8.206192 7.053443 6.057668 5.210093 4.497631 3.904280 3.412249 3.002855 2.657214 2.356800 2.083883 1.821930 1.555999 1.273206 0.963396 0.620271 0.243363 -0.159260 -0.569823 -0.970852 -1.251193 -1.306548 -1.306548 -1.306548 19816.102996 19816.102996 19816.102996 19778.169940 19382.306179 18522.255858 17861.368360 17343.163201 16848.398045 16331.821334 15848.262884 15453.532274 15152.274384 14878.772580 14574.442830 14221.473729 13823.150036 13434.170411 13068.027452 12666.582969 12177.931014 11630.953486 11019.266592 10287.606739 9392.581919 8395.614142 7386.911216 6431.053470 5576.280019 4850.676713 4261.994650 3803.901231 3459.403693 3204.271838 3011.064033 2852.319928 2701.973232 2533.908777 2317.176278 2015.440265 1627.400419 1251.408865 1003.884906 884.909047 830.614853 771.174194 634.490661 377.484441 67.422042 -167.651413 -294.239000 -346.023010 -358.035558 -350.675611 -333.787617 -311.992661 -287.559924 -261.715290 -235.212030 -208.584182 -182.262047 -156.623062 -132.009844 -108.731388 -87.056601 -67.205787 -49.343316 -33.573152 -19.937829 -8.420813 1.048210 8.585780 14.345574 18.508539 21.272910 22.844719 23.429255 23.223809 22.411915 21.159144 19.610424 17.888755 16.095126 14.309403 12.591949 10.985729 9.518686 8.206192 7.053443 6.057668 5.210093 4.497631 3.904280 3.412249 3.002855 2.657214 2.356800 2.083883 1.821930 1.555999 1.273206 0.963396 0.620271 0.243363 -0.159260 -0.569823 -0.970852 -1.251193 -1.306548 -1.306548 -1.306548 19816.102996 19816.102996 19816.102996 19778.169940 19382.306179 18522.255858 17861.368360 17343.163201 16848.398045 16331.821334 15848.262884 15453.532274 15152.274384 14878.772580 14574.442830 14221.473729 13823.150036 13434.170411 13068.027452 12666.582969 12177.931014 11630.953486 11019.266592 10287.606739 9392.581919 8395.614142 7386.911216 6431.053470 5576.280019 4850.676713 4261.994650 3803.901231 3459.403693 3204.271838 3011.064033 2852.319928 2701.973232 2533.908777 2317.176278 2015.440265 1627.400419 1251.408865 1003.884906 884.909047 830.614853 771.174194 634.490661 377.484441 67.422042 -167.651413 -294.239000 -346.023010 -358.035558 -350.675611 -333.787617 -311.992661 -287.559924 -261.715290 -235.212030 -208.584182 -182.262047 -156.623062 -132.009844 -108.731388 -87.056601 -67.205787 -49.343316 -33.573152 -19.937829 -8.420813 1.048210 8.585780 14.345574 18.508539 21.272910 22.844719 23.429255 23.223809 22.411915 21.159144 19.610424 17.888755 16.095126 14.309403 12.591949 10.985729 9.518686 8.206192 7.053443 6.057668 5.210093 4.497631 3.904280 3.412249 3.002855 2.657214 2.356800 2.083883 1.821930 1.555999 1.273206 0.963396 0.620271 0.243363 -0.159260 -0.569823 -0.970852 -1.251193 -1.306548 -1.306548 -1.306548 13068.866957 13068.866957 13068.866957 13049.053154 12852.317099 12292.926768 11476.260199 11521.269039 11741.953782 11982.034249 10483.498040 10374.719509 9733.064155 8796.638725 8137.951349 7676.170587 7754.798511 6811.844474 5783.178903 5092.570100 4491.700249 5191.183400 4985.561333 4124.248282 3150.248829 2689.706130 2035.603108 1663.958190 1466.651922 1453.571469 1741.963103 881.033391 -1159.608392 -1073.945232 -345.988883 197.679175 844.546483 1198.515395 -381.166364 -1284.025360 -592.266590 112.233136 933.389421 206.832457 -1526.261332 -1208.820915 -222.639732 -507.214067 -2318.174414 -2498.807252 -2029.720666 -1787.696144 -1635.689455 -1531.469204 -1455.020314 -1397.320693 13147.706689 13147.706689 13147.706689 13142.974357 13255.036792 12984.824904 12265.335500 15761.852244 11755.362022 11962.830995 11994.186933 13496.406440 14442.034760 14666.612858 12280.702632 13283.154108 14622.682369 12417.310018 13546.518690 13453.957733 12872.780562 14055.012592 13012.501151 13108.325422 13445.355192 15420.107782 15639.803922 13494.538196 10914.674643 13421.005540 15627.760680 13086.169267 14975.394161 14249.923001 13424.428080 13753.481422 12968.663600 10598.929993 12515.437242 12841.918039 13147.456104 13335.792233 12165.788708 13385.029073 12169.171952 12407.562859 11891.755025 12566.223395 13987.925770 13098.339121 13965.449701 13364.722599 13634.850274 2949.719286 -241.438516 -139.321584 13306.384139 13306.384139 13306.384139 13320.289629 13609.250976 13429.460662 12284.512276 11822.067585 11805.396862 13235.714438 12622.225204 12578.355694 12431.081234 11428.408291 10764.398402 10704.488614 12679.543190 14369.032823 12434.554326 11193.758567 13601.765384 13542.262244 11216.561986 12224.897669 11687.869868 13422.357873 12262.131903 13475.216615 12136.409012 13818.658353 13315.134882 12689.317100 14158.628896 12939.034408 10891.713466 13933.805953 10371.287250 11010.543520 13389.617748 13383.317207 11481.155161 14373.833668 12259.557056 12901.572949 13868.317504 13224.763557 11677.147546 12292.894341 13413.100420 11927.959673 13451.177848 13874.833065 5425.859290 9407.720607 -230.489016 -89.678064 13487.373673 13487.373673 13487.373673 13466.959729 13364.038399 13048.728552 11905.542369 12946.155361 12187.904072 10866.701143 10441.450696 10077.113606 12206.721505 11984.467444 12408.337244 10637.200504 13856.084149 12126.724218 12534.583091 12351.038569 11640.354592 12848.944038 12115.627595 14303.228840 14415.017353 13925.266387 11732.268892 12984.732647 14427.257050 13676.986435 13176.148126 11956.231465 13656.168226 13552.006046 11694.875147 13504.232382 13271.162432 12247.845475 12124.277203 14369.350576 13060.968471 13905.797426 13598.643723 13361.525767 13927.370684 11638.536329 12181.604048 10830.273220 13932.210175 14255.341885 12380.389714 13220.451916 872.297713 11453.974729 2523.043033 4705.656123 13677.123941 