<VTKFile type="PolyData">
<PolyData>
<Piece NumberOfPoints="8632" NumberOfVerts="8632" NumberOfLines="0" NumberOfStrips="0" NumberOfPolys="0">
<PointData>
<DataArray type="Float64" Name="Pressure" format="ascii">
 14182.582198 14182.582198 14182.582198 14190.759126 14280.549305 14491.886839 14653.119216 14742.622626 14758.588875 14686.611199 14514.677002 14251.685088 13912.962729 13519.646874 13070.549813 12527.717436 11893.797254 11234.113367 10613.970929 10076.225092 9593.212911 9100.867249 8585.070010 8031.918435 7460.162305 6871.905617 6253.975687 5636.944803 5054.546775 4532.419676 4067.725321 3565.084178 2907.682709 2224.300668 1760.446182 1492.284963 1228.567982 960.635735 770.215641 585.813387 371.968052 225.209704 142.218074 32.507212 -88.289715 -132.447009 -111.103738 -114.322141 -197.507193 -303.867654 -385.893830 -495.910231 -650.842476 -768.361336 -809.186740 -796.865492 -757.885875 -707.580993 -653.401450 -597.904090 -541.861729 -485.890086 -430.800207 -377.514194 -326.913722 -279.735365 -236.521322 -197.608540 -163.140379 -133.090652 -107.293990 -85.478637 -67.298855 -52.364859 -40.268857 -30.606324 -22.992253 -17.072491 -12.530675 -9.091433 -6.520630 -4.623450 -3.241034 -2.246283 -1.539332 -1.043066 -0.698922 -0.463138 -0.303516 -0.196730 -0.126126 -0.079985 -0.050178 -0.031141 -0.019121 -0.011615 -0.006982 -0.004152 -0.002443 -0.001423 -0.000820 -0.000467 -0.000263 -0.000146 -0.000079 -0.000041 -0.000018 -0.000006 -0.000004 -0.000004 -0.000004 14182.582198 14182.582198 14182.582198 14190.759126 14280.549305 14491.886839 14653.119216 14742.622626 14758.588875 14686.611199 14514.677002 14251.685088 13912.962729 13519.646874 13070.549813 12527.717436 11893.797254 11234.113367 10613.970929 10076.225092 9593.212911 9100.867249 8585.070010 8031.918435 7460.162305 6871.905617 6253.975687 5636.944803 5054.546775 4532.419676 4067.725321 3565.084178 2907.682709 2224.300668 1760.446182 1492.284963 1228.567982 960.635735 770.215641 585.813387 371.968052 225.209704 142.218074 32.507212 -88.289715 -132.447009 -111.103738 -114.322141 -197.507193 -303.867654 -385.893830 -495.910231 -650.842476 -768.361336 -809.186740 -796.865492 -757.885875 -707.580993 -653.401450 -597.904090 -541.861729 -485.890086 -430.800207 -377.514194 -326.913722 -279.735365 -236.521322 -197.608540 -163.140379 -133.090652 -107.293990 -85.478637 -67.298855 -52.364859 -40.268857 -30.606324 -22.992253 -17.072491 -12.530675 -9.091433 -6.520630 -4.623450 -3.241034 -2.246283 -1.539332 -1.043066 -0.698922 -0.463138 -0.303516 -0.196730 -0.126126 -0.079985 -0.050178 -0.031141 -0.019121 -0.011615 -0.006982 -0.004152 -0.002443 -0.001423 -0.000820 -0.000467 -0.000263 -0.000146 -0.000079 -0.000041 -0.000018 -0.000006 -0.000004 -0.000004 -0.000004 14182.582198 14182.582198 14182.582198 14190.759126 14280.549305 14491.886839 14653.119216 14742.622626 14758.588875 14686.611199 14514.677002 14251.685088 13912.962729 13519.646874 13070.549813 12527.717436 11893.797254 11234.113367 10613.970929 10076.225092 9593.212911 9100.867249 8585.070010 8031.918435 7460.162305 6871.905617 6253.975687 5636.944803 5054.546775 4532.419676 4067.725321 3565.084178 2907.682709 2224.300668 1760.446182 1492.284963 1228.567982 960.635735 770.215641 585.813387 371.968052 225.209704 142.218074 32.507212 -88.289715 -132.447009 -111.103738 -114.322141 -197.507193 -303.867654 -385.893830 -495.910231 -650.842476 -768.361336 -809.186740 -796.865492 -757.885875 -707.580993 -653.401450 -597.904090 -541.861729 -485.890086 -430.800207 -377.514194 -326.913722 -279.735365 -236.521322 -197.608540 -163.140379 -133.090652 -107.293990 -85.478637 -67.298855 -52.364859 -40.268857 -30.606324 -22.992253 -17.072491 -12.530675 -9.091433 -6.520630 -4.623450 -3.241034 -2.246283 -1.539332 -1.043066 -0.698922 -0.463138 -0.303516 -0.196730 -0.126126 -0.079985 -0.050178 -0.031141 -0.019121 -0.011615 -0.006982 -0.004152 -0.002443 -0.001423 -0.000820 -0.000467 -0.000263 -0.000146 -0.000079 -0.000041 -0.000018 -0.000006 -0.000004 -0.000004 -0.000004 14211.508689 14211.508689 14211.508689 14220.898373 14328.922151 14582.395422 14761.357661 14863.557562 14909.741957 14858.592171 14680.640290 14414.401221 14062.009239 13649.676378 13190.833166 12628.846506 11983.064371 11328.157943 10685.933827 10129.706434 9632.513566 9109.983161 8590.252339 8014.417926 7445.509853 6871.721862 6241.827050 5621.723511 5033.476290 4511.462388 4064.137228 3582.923526 2851.158963 2063.304234 1626.451368 1441.135762 1181.567253 888.142387 737.003780 572.442304 326.219520 188.644153 145.327566 32.940021 -118.592358 -155.040862 -100.838824 -82.813401 -191.930110 -319.360492 -386.702592 -487.717467 -686.778274 -808.789730 -837.160685 -812.638229 -765.887569 -711.132099 -654.829224 -598.464441 -542.075206 -485.960338 -430.806117 -377.487610 -326.868924 -279.679927 -236.460066 -197.544973 -163.077204 -133.029947 -107.237290 -85.426982 -67.252846 -52.324725 -40.234522 -30.577488 -22.968457 -17.053182 -12.515261 -9.079321 -6.511257 -4.616306 -3.235667 -2.242308 -1.536430 -1.040976 -0.697438 -0.462097 -0.302796 -0.196239 -0.125795 -0.079765 -0.050033 -0.031047 -0.019060 -0.011577 -0.006958 -0.004137 -0.002434 -0.001417 -0.000816 -0.000465 -0.000262 -0.000145 -0.000078 -0.000040 -0.000017 -0.000006 -0.000004 -0.000004 -0.000004 14542.582904 14542.582904 14542.582904 14571.462873 14932.824507 15739.435953 16029.808478 16198.597881 16796.090624 17130.645791 16841.181600 16626.096773 16013.928427 15189.163037 14460.088387 13619.414775 13003.501398 12673.340594 11702.972163 10788.432768 10106.537371 9073.277460 8598.939262 7657.119599 7159.853793 6868.034515 6033.668746 5376.107982 4771.915957 4126.621293 3863.589872 4088.510351 2031.824464 -277.793229 -79.032604 1222.029072 726.593691 -266.275443 502.971838 687.568749 -446.617005 -339.809665 397.828433 153.785793 -679.219963 -472.144571 51.373198 483.041517 -156.186207 -687.956396 -317.025475 -265.893782 -1142.394085 -1378.862644 -1151.338138 -990.734469 -854.337599 -746.631736 -668.860211 -603.919289 -544.147442 -486.637961 -430.854940 -377.217053 -326.418411 -279.123941 -235.846384 -196.908489 -162.444865 -132.422520 -106.670093 -84.910392 -66.792849 -51.923566 -39.891432 -30.289425 -22.730811 -16.860413 -12.361422 -8.958474 -6.417774 -4.545066 -3.182169 -2.202706 -1.507524 -1.020168 -0.682661 -0.451743 -0.295636 -0.191351 -0.122501 -0.077573 -0.048592 -0.030112 -0.018460 -0.011197 -0.006720 -0.003990 -0.002344 -0.001363 -0.000784 -0.000446 -0.000250 -0.000137 -0.000071 -0.000034 -0.000014 -0.000005 -0.000004 -0.000004 -0.000004 15063.391611 15063.391611 15063.391611 15113.076477 15905.436796 18345.957188 17589.690629 17133.017331 20387.228569 22417.624576 20190.426343 21801.568113 19561.332254 17621.398198 16192.577788 13324.262175 14989.176655 17797.308903 13100.362454 11995.079945 10458.286526 8607.906977 9028.801172 5104.858647 6906.462489 7572.727792 4357.035235 4976.569841 4232.878241 3047.720117 1520.911444 6020.705940 960.278188 -6440.254801 -2603.835411 2318.675338 355.326887 -2899.592878 569.210953 1475.850298 -2146.709689 -1404.986435 1227.755387 434.593446 -1854.817472 -1071.986225 336.868576 1392.813498 -224.168026 -1416.457951 -211.245019 124.151310 -1713.359428 -2155.134908 -1541.217957 -1232.583051 -1001.935586 -804.209217 -690.333606 -612.174456 -547.287870 -487.711304 -431.026389 -376.952023 -325.919949 -278.494406 -235.147201 -196.182224 -161.723344 -131.729821 -106.023783 -84.322268 -66.269644 -51.467728 -39.501968 -29.962760 -22.461606 -16.642281 -12.187536 -8.822035 -6.312354 -4.464828 -3.121987 -2.158212 -1.475090 -0.996850 -0.666125 -0.440172 -0.287646 -0.185905 -0.118836 -0.075138 -0.046994 -0.029076 -0.017797 -0.010777 -0.006457 -0.003828 -0.002245 -0.001303 -0.000748 -0.000424 -0.000237 -0.000127 -0.000058 -0.000023 -0.000010 -0.000004 -0.000003 -0.000003 -0.000003 -0.000018 -0.000008 -0.000003 -0.000003 -0.000003 -0.000003 -0.000010 -0.000005 -0.000002 -0.000002 -0.000002 -0.000002 -0.000004 -0.000002 -0.000001 -0.000001 -0.000001 -0.000001 -0.000001 -0.000001 -0.000001 -0.000001 -0.000001 -0.000001 -0.000001 -0.000000 -0.000000 -0.000000 -0.000000 -0.000000 -0.000000 -0.000000 -0.000000 -0.000000 -0.000000 -0.000000 -0.000000 -0.000000 -0.000000 -0.000000 -0.000000 -0.000000 -0.000000 -0.000000 -0.000000 -0.000000 -0.000000 -0.000000 -0.000000 -0.000000 -0.000000 -0.000000 -0.000000 -0.000000 -0.000000 -0.000000 -0.000000 -0.000000 -0.000000 -0.000000 -0.000000 -0.000000 -0.000000 -0.000000 -0.000000 -0.000000 -0.000000 -0.000000 -0.000000 -0.000000 -0.000000 -0.000000 -0.000000 -0.000000 -0.000000 -0.000000 -0.000000 -0.000000 -0.000000 -0.000000 -0.000000 -0.000000 -0.000000 -0.000000 -0.000000 -0.000000 -0.000000 -0.000000 -0.000000 -0.000000 -0.000000 -0.000000 -0.000000 -0.000000 -0.000000 -0.000000 -0.000000 -0.000000 -0.000000 -0.000000 -0.000000 -0.000000 -0.000000 -0.000000 -0.000000 -0.000000 -0.000000 -0.000000 -0.000000 -0.000000 -0.000000 -0.000000 -0.000000 -0.000000 -0.000000 -0.000000 -0.000000 -0.000000 -0.000000 -0.000000 -0.000000 -0.000000 -0.000000 -0.000000 -0.000000 -0.000000 -0.000000 -0.000000 -0.000000 -0.000000 -0.000000 -0.000000 -0.000000 -0.000000 -0.000000 -0.000000 -0.000000 -0.000000 -0.000000 -0.000000 -0.000000 -0.000000 -0.000000 -0.000000 -0.000000 -0.000000 -0.000000 -0.000000 -0.000000 -0.000000 -0.000000 -0.000000 -0.000000 -0.000000 -0.000000 -0.000000 -0.000000 -0.000000 -0.000000 -0.000000 -0.000000 -0.000000 -0.000000 -0.000000 -0.000000 -0.000000 -0.000000 -0.000000 -0.000000 -0.000000 -0.000000 -0.000000 -0.000000 -0.000000 -0.000000 -0.000000 -0.000000 -0.000000 -0.000000 -0.000000 -0.000000 -0.000000 -0.000000 -0.000000 -0.000000 -0.000000 -0.000000 -0.000000 -0.000000 -0.000000 -0.000000 -0.000000 -0.000000 -0.000000 -0.000000 -0.000000 -0.000000 -0.000000 -0.000000 -0.000000 -0.000000 -0.000000 -0.000000 -0.000000 -0.000000 -0.000000 -0.000000 -0.000000 -0.000000 -0.000000 -0.000000 -0.000000 -0.000000 -0.000000 -0.000000 -0.000000 -0.000000 -0.000000 -0.000000 -0.000000 -0.000000 -0.000000 -0.000000 -0.000000 -0.000000 -0.000000 -0.000000 -0.000000 -0.000000 -0.000000 -0.000000 -0.000000 -0.000000 -0.000000 -0.000000 -0.000000 -0.000000 -0.000000 -0.000000 -0.000000 -0.000000 -0.000000 -0.000000 -0.000000 -0.000000 -0.000000 -0.000000 -0.000000 -0.000000 -0.000000 -0.000000 -0.000000 -0.000000 -0.000000 -0.000000 -0.000000 -0.000000 -0.000000 -0.000000 -0.000000 -0.000000 -0.000000 -0.000000 -0.000000 -0.000000 -0.000000 -0.000000 -0.000000 -0.000000 -0.000000 -0.000000 -0.000000 -0.000000 -0.000000 -0.000000 -0.000000 -0.000000 -0.000000 -0.000000 -0.000000 -0.000000 -0.000000 -0.000000 -0.000000 -0.000000 -0.000000 -0.000000 -0.000000 -0.000000 -0.000000 -0.000000 0.000000 0.000000 0.000000 -0.000000 -0.000000 -0.000000 0.000000 0.000000 0.000000 -0.000000 -0.000000 -0.000000 0.000000 0.000000 0.000000 -0.000000 -0.000000 -0.000000 0.000000 0.000000 0.000000 -0.000000 -0.000000 -0.000000 0.000000 0.000000 0.000000 -0.000000 -0.000000 -0.000000 0.000000 0.000000 0.000000 -0.000000 -0.000000 -0.000000 0.000000 0.000000 0.000000 -0.000000 -0.000000 -0.000000 0.000000 0.000000 0.000000 -0.000000 -0.000000 -0.000000 0.000000 0.000000 0.000000 -0.000000 -0.000000 -0.000000 0.000000 0.000000 0.000000 -0.000000 -0.000000 -0.000000 0.000000 0.000000 0.000000 -0.000000 -0.000000 -0.000000 0.000000 0.000000 0.000000 -0.000000 -0.000000 -0.000000 0.000000 0.000000 0.000000 -0.000000 -0.000000 -0.000000 0.000000 0.000000 0.000000 -0.000000 -0.000000 -0.000000 0.000000 0.000000 0.000000 -0.000000 -0.000000 -0.000000 0.000000 0.000000 0.000000 -0.000000 -0.000000 -0.000000 0.000000 0.000000 0.000000 -0.000000 -0.000000 -0.000000 0.000000 0.000000 0.000000 -0.000000 -0.000000 -0.000000 0.000000 0.000000 0.000000 -0.000000 -0.000000 -0.000000 0.000000 0.000000 0.000000 -0.000000 -0.000000 -0.000000 0.000000 0.000000 0.000000 -0.000000 -0.000000 -0.000000 0.000000 0.000000 0.000000 -0.000000 -0.000000 -0.000000 0.000000 0.000000 0.000000 -0.000000 -0.000000 -0.000000 0.000000 0.000000 0.000000 -0.000000 -0.000000 -0.000000 0.000000 0.000000 0.000000 -0.000000 -0.000000 -0.000000 0.000000 0.000000 0.000000 -0.000000 -0.000000 -0.000000 0.000000 0.000000 0.000000 -0.000000 -0.000000 -0.000000 0.000000 0.000000 0.000000 -0.000000 -0.000000 -0.000000 0.000000 0.000000 0.000000 -0.000000 -0.000000 -0.000000 0.000000 0.000000 0.000000 -0.000000 -0.000000 -0.000000 0.000000 0.000000 0.000000 -0.000000 -0.000000 -0.000000 0.000000 0.000000 0.000000 -0.000000 -0.000000 -0.000000 0.000000 0.000000 0.000000 -0.000000 -0.000000 -0.000000 0.000000 0.000000 0.000000 -0.000000 -0.000000 -0.000000 0.000000 0.000000 0.000000 -0.000000 -0.000000 -0.000000 0.000000 0.000000 0.000000 -0.000000 -0.000000 -0.000000 0.000000 0.000000 0.000000 -0.000000 -0.000000 -0.000000 0.000000 0.000000 0.000000 -0.000000 -0.000000 -0.000000 0.000000 0.000000 0.000000 -0.000000 -0.000000 -0.000000 0.000000 0.000000 0.000000 -0.000000 -0.000000 -0.000000 0.000000 0.000000 0.000000 -0.000000 -0.000000 -0.000000 0.000000 0.000000 0.000000 -0.000000 -0.000000 -0.000000 0.000000 0.000000 0.000000 -0.000000 -0.000000 -0.000000 0.000000 0.000000 0.000000 -0.000000 -0.000000 -0.000000 0.000000 0.000000 0.000000 -0.000000 -0.000000 -0.000000 0.000000 0.000000 0.000000 -0.000000 -0.000000 -0.000000 0.000000 0.000000 0.000000 -0.000000 -0.000000 -0.000000 0.000000 0.000000 0.000000 -0.000000 -0.000000 -0.000000 0.000000 0.000000 0.000000 -0.000000 -0.000000 -0.000000 0.000000 0.000000 0.000000 -0.000000 -0.000000 -0.000000 0.000000 0.000000 0.000000 -0.000000 -0.000000 -0.000000 0.000000 0.000000 0.000000 -0.000000 -0.000000 -0.000000 0.000000 0.000000 0.000000 -0.000000 -0.000000 -0.000000 0.000000 0.000000 0.000000 -0.000000 -0.000000 -0.000000 0.000000 0.000000 0.000000 -0.000000 -0.000000 -0.000000 0.000000 0.000000 0.000000 -0.000000 -0.000000 -0.000000 0.000000 0.000000 0.000000 -0.000000 -0.000000 -0.000000 0.000000 0.000000 0.000000 -0.000000 -0.000000 -0.000000 0.000000 0.000000 0.000000 -0.000000 -0.000000 -0.000000 0.000000 0.000000 0.000000 -0.000000 -0.000000 -0.000000 0.000000 0.000000 0.000000 -0.000000 -0.000000 -0.000000 0.000000 0.000000 0.000000 -0.000000 -0.000000 -0.000000 0.000000 0.000000 0.000000 -0.000000 -0.000000 -0.000000 0.000000 0.000000 0.000000 -0.000000 -0.000000 -0.000000 0.000000 0.000000 0.000000 -0.000000 -0.000000 -0.000000 0.000000 0.000000 0.000000 -0.000000 -0.000000 -0.000000 0.000000 0.000000 0.000000 -0.000000 -0.000000 -0.000000 0.000000 0.000000 0.000000 -0.000000 -0.000000 -0.000000 0.000000 0.000000 0.000000 -0.000000 -0.000000 -0.000000 0.000000 0.000000 0.000000 -0.000000 -0.000000 -0.000000 0.000000 0.000000 0.000000 -0.000000 -0.000000 -0.000000 0.000000 0.000000 0.000000 -0.000000 -0.000000 -0.000000 0.000000 0.000000 0.000000 -0.000000 -0.000000 -0.000000 0.000000 0.000000 0.000000 -0.000000 -0.000000 -0.000000 0.000000 0.000000 0.000000 -0.000000 -0.000000 -0.000000 0.000000 0.000000 0.000000 -0.000000 -0.000000 -0.000000 0.000000 0.000000 0.000000 -0.000000 -0.000000 -0.000000 0.000000 0.000000 0.000000 -0.000000 -0.000000 -0.000000 0.000000 0.000000 0.000000 -0.000000 -0.000000 -0.000000 0.000000 0.000000 0.000000 -0.000000 -0.000000 -0.000000 0.000000 0.000000 0.000000 -0.000000 -0.000000 -0.000000 0.000000 0.000000 0.000000 -0.000000 -0.000000 -0.000000 0.000000 0.000000 0.000000 -0.000000 -0.000000 -0.000000 0.000000 0.000000 0.000000 -0.000000 -0.000000 -0.000000 0.000000 0.000000 0.000000 -0.000000 -0.000000 -0.000000 0.000000 0.000000 0.000000 -0.000000 -0.000000 -0.000000 0.000000 0.000000 0.000000 -0.000000 -0.000000 -0.000000 0.000000 0.000000 0.000000 -0.000000 -0.000000 -0.000000 0.000000 0.000000 0.000000 -0.000000 -0.000000 -0.000000 0.000000 0.000000 0.000000 -0.000000 -0.000000 -0.000000 0.000000 0.000000 0.000000 -0.000000 -0.000000 -0.000000 0.000000 0.000000 0.000000 -0.000000 -0.000000 -0.000000 0.000000 0.000000 0.000000 -0.000000 -0.000000 -0.000000 0.000000 0.000000 0.000000 -0.000000 -0.000000 -0.000000 0.000000 0.000000 0.000000 -0.000000 -0.000000 -0.000000 0.000000 0.000000 0.000000 -0.000000 -0.000000 -0.000000 0.000000 0.000000 0.000000 -0.000000 -0.000000 -0.000000 0.000000 0.000000 0.000000 -0.000000 -0.000000 -0.000000 0.000000 0.000000 0.000000 -0.000000 -0.000000 -0.000000 0.000000 0.000000 0.000000 -0.000000 -0.000000 -0.000000 0.000000 0.000000 0.000000 -0.000000 -0.000000 -0.000000 0.000000 0.000000 0.000000 -0.000000 -0.000000 -0.000000 0.000000 0.000000 0.000000 -0.000000 -0.000000 -0.000000 0.000000 0.000000 0.000000 -0.000000 -0.000000 -0.000000 0.000000 0.000000 0.000000 -0.000000 -0.000000 -0.000000 0.000000 0.000000 0.000000 -0.000000 -0.000000 -0.000000 0.000000 0.000000 0.000000 -0.000000 -0.000000 -0.000000 0.000000 0.000000 0.000000 -0.000000 -0.000000 -0.000000 0.000000 0.000000 0.000000 -0.000000 -0.000000 -0.000000 0.000000 0.000000 0.000000 -0.000000 -0.000000 -0.000000 0.000000 0.000000 0.000000 -0.000000 -0.000000 -0.000000 0.000000 0.000000 0.000000 -0.000000 -0.000000 -0.000000 -0.000000 -0.000000 -0.000000 -0.000000 -0.000000 -0.000000 -0.000000 -0.000000 -0.000000 -0.000000 -0.000000 -0.000000 -0.000000 -0.000000 -0.000000 -0.000000 -0.000000 -0.000000 -0.000000 -0.000000 -0.000000 -0.000000 -0.000000 -0.000000 -0.000000 -0.000000 -0.000000 0.000000 -0.000000 -0.000000 -0.000000 -0.000000 -0.000000 0.000000 -0.000000 -0.000000 -0.000000 -0.000000 -0.000000 0.000000 -0.000000 -0.000000 -0.000000 -0.000000 -0.000000 0.000000 -0.000000 -0.000000 -0.000000 -0.000000 -0.000000 0.000000 -0.000000 -0.000000 -0.000000 -0.000000 -0.000000 0.000000 -0.000000 -0.000000 -0.000000 -0.000000 -0.000000 0.000000 -0.000000 -0.000000 -0.000000 -0.000000 -0.000000 0.000000 -0.000000 -0.000000 -0.000000 -0.000000 -0.000000 0.000000 -0.000000 -0.000000 -0.000000 -0.000000 -0.000000 0.000000 -0.000000 -0.000000 -0.000000 -0.000000 -0.000000 0.000000 -0.000000 -0.000000 -0.000000 -0.000000 -0.000000 0.000000 -0.000000 -0.000000 -0.000000 -0.000000 -0.000000 0.000000 -0.000000 -0.000000 -0.000000 -0.000000 -0.000000 0.000000 -0.000000 -0.000000 -0.000000 -0.000000 -0.000000 0.000000 -0.000000 -0.000000 -0.000000 -0.000000 -0.000000 0.000000 -0.000000 -0.000000 -0.000000 -0.000000 -0.000000 0.000000 -0.000000 -0.000000 -0.000000 -0.000000 -0.000000 0.000000 -0.000000 -0.000000 -0.000000 -0.000000 -0.000000 0.000000 -0.000000 -0.000000 -0.000000 -0.000000 -0.000000 0.000000 -0.000000 -0.000000 -0.000000 -0.000000 -0.000000 0.000000 -0.000000 -0.000000 -0.000000 -0.000000 -0.000000 0.000000 -0.000000 -0.000000 -0.000000 -0.000000 -0.000000 0.000000 -0.000000 -0.000000 -0.000000 -0.000000 -0.000000 0.000000 -0.000000 -0.000000 -0.000000 -0.000000 -0.000000 0.000000 -0.000000 -0.000000 -0.000000 -0.000000 -0.000000 0.000000 -0.000000 -0.000000 -0.000000 -0.000000 -0.000000 0.000000 -0.000000 -0.000000 -0.000000 -0.000000 -0.000000 0.000000 -0.000000 -0.000000 -0.000000 -0.000000 -0.000000 0.000000 -0.000000 -0.000000 -0.000000 -0.000000 -0.000000 0.000000 -0.000000 -0.000000 -0.000000 -0.000000 -0.000000 0.000000 -0.000000 -0.000000 -0.000000 -0.000000 -0.000000 0.000000 -0.000000 -0.000000 -0.000000 -0.000000 -0.000000 0.000000 -0.000000 -0.000000 -0.000000 -0.000000 -0.000000 0.000000 -0.000000 -0.000000 -0.000000 -0.000000 -0.000000 -0.000000 -0.000000 0.000000 0.000000 0.000000 0.000000 10933.244598 10933.244598 10933.244598 10947.332281 11190.406467 10788.411910 9548.884276 11396.030117 11983.694375 10684.317550 9302.488766 9592.034474 9568.697990 8974.668532 8063.249639 6492.651184 6247.220050 6216.473795 5173.190632 4519.800132 4202.367785 2323.636477 2130.328797 674.243618 -16.135222 -211.655713 361.141381 708.319455 755.859428 681.639660 564.455024 445.375499 341.535037 257.302549 191.418138 140.809552 102.301323 73.203564 51.397068 35.242486 23.461334 15.040479 9.167990 5.192735 2.597805 0.980397 0.034154 -0.467525 -0.687231 -0.737876 -0.695109 -0.607575 -0.505007 -0.404356 -0.314266 -0.238216 -0.176668 -0.128468 -0.091737 -0.064400 -0.044480 -0.030245 -0.020256 -0.013367 -0.008694 -0.005574 -0.003525 -0.002198 -0.001352 -0.000821 -0.000491 -0.000290 -0.000169 -0.000098 -0.000055 -0.000031 -0.000017 -0.000009 -0.000005 -0.000003 -0.000001 -0.000001 -0.000000 -0.000000 -0.000000 -0.000000 -0.000000 -0.000000 -0.000000 -0.000000 -0.000000 -0.000000 -0.000000 -0.000000 -0.000000 -0.000000 -0.000000 -0.000000 -0.000000 -0.000000 -0.000000 -0.000000 -0.000000 -0.000000 -0.000000 -0.000000 -0.000000 0.000000 -0.000000 -0.000000 -0.000000 10714.628191 10714.628191 10714.628191 10699.242577 10522.067950 9758.027867 9876.149111 11183.563923 10571.449287 9299.360132 8633.107988 8560.416745 8469.921391 7829.617583 7082.620013 6523.682192 5991.853104 5511.807651 4664.151403 4101.568592 3703.799911 2911.794119 2451.220500 1713.210570 1093.168065 917.606144 898.668632 899.229029 829.544920 709.412364 575.609169 450.914029 345.131843 260.032785 193.580781 142.521105 103.646290 74.256128 52.218630 35.880687 23.952485 15.412964 9.445000 5.393890 2.739895 1.077645 0.098316 -0.427032 -0.663118 -0.724695 -0.688923 -0.605639 -0.505472 -0.406027 -0.316403 -0.240390 -0.178653 -0.130164 -0.093120 -0.065488 -0.045312 -0.030864 -0.020707 -0.013688 -0.008919 -0.005729 -0.003629 -0.002267 -0.001397 -0.000850 -0.000510 -0.000302 -0.000176 -0.000102 -0.000058 -0.000033 -0.000018 -0.000010 -0.000005 -0.000003 -0.000002 -0.000001 -0.000000 -0.000000 -0.000000 -0.000000 -0.000000 -0.000000 -0.000000 -0.000000 -0.000000 -0.000000 -0.000000 -0.000000 -0.000000 -0.000000 -0.000000 -0.000000 -0.000000 -0.000000 0.000000 -0.000000 -0.000000 0.000000 -0.000000 -0.000000 -0.000000 -0.000000 -0.000000 -0.000000 -0.000000 10616.004778 10616.004778 10616.004778 10602.440084 10451.741013 10076.766010 9855.145863 9832.303715 9551.325561 9229.030091 8924.958721 8633.586764 8284.319951 7808.127516 7251.142285 6665.979905 6083.167743 5495.501368 4894.438855 4315.983303 3761.596047 3206.798481 2679.457004 2176.969087 1749.519822 1444.359065 1232.983401 1060.658086 896.314010 735.766452 586.792444 456.869083 349.201552 263.186714 196.091314 144.507204 105.204288 75.473190 53.167217 36.616938 24.518996 15.842816 9.765028 5.626666 2.904675 1.190721 0.173165 -0.379598 -0.634711 -0.709027 -0.681441 -0.603154 -0.505832 -0.407834 -0.318788 -0.242847 -0.180911 -0.132102 -0.094707 -0.066740 -0.046271 -0.031581 -0.021230 -0.014062 -0.009181 -0.005909 -0.003751 -0.002348 -0.001450 -0.000884 -0.000531 -0.000315 -0.000185 -0.000107 -0.000061 -0.000034 -0.000019 -0.000011 -0.000006 -0.000003 -0.000002 -0.000001 -0.000000 -0.000000 -0.000000 -0.000000 -0.000000 -0.000000 -0.000000 -0.000000 -0.000000 -0.000000 -0.000000 -0.000000 -0.000000 -0.000000 -0.000000 -0.000000 -0.000000 -0.000000 -0.000000 -0.000000 -0.000000 -0.000000 -0.000000 -0.000000 -0.000000 0.000000 0.000000 0.000000 0.000000 10603.699836 10603.699836 10603.699836 10590.927246 10454.705400 10146.013134 9891.913667 9697.955351 9501.299334 9263.823131 8991.973232 8683.028074 8305.127613 7832.137091 7289.110936 6713.045643 6126.707251 5535.705011 4942.211635 4361.805237 3798.377651 3247.747702 2723.386972 2239.659998 1829.051612 1515.102621 1278.985969 1084.291788 906.574134 739.931732 588.627303 457.892377 349.923886 263.754029 196.544562 144.865875 105.485445 75.692622 53.338112 36.749514 24.620996 15.920232 9.822700 5.668654 2.934433 1.211173 0.186728 -0.370982 -0.629535 -0.706158 -0.680057 -0.602680 -0.505878 -0.408146 -0.319209 -0.243284 -0.181314 -0.132450 -0.094992 -0.066965 -0.046443 -0.031710 -0.021324 -0.014129 -0.009228 -0.005942 -0.003773 -0.002363 -0.001460 -0.000890 -0.000535 -0.000318 -0.000186 -0.000108 -0.000061 -0.000035 -0.000019 -0.000011 -0.000006 -0.000003 -0.000002 -0.000001 -0.000000 -0.000000 -0.000000 -0.000000 -0.000000 -0.000000 -0.000000 -0.000000 -0.000000 -0.000000 -0.000000 -0.000000 -0.000000 -0.000000 -0.000000 -0.000000 -0.000000 -0.000000 -0.000000 -0.000000 -0.000000 -0.000000 -0.000000 0.000000 0.000000 0.000000 0.000000 0.000000 0.000000 10603.699836 10603.699836 10603.699836 10590.927246 10454.705400 10146.013134 9891.913667 9697.955351 9501.299334 9263.823131 8991.973232 8683.028074 8305.127613 7832.137091 7289.110936 6713.045643 6126.707251 5535.705011 4942.211635 4361.805237 3798.377651 3247.747702 2723.386972 2239.659998 1829.051612 1515.102621 1278.985969 1084.291788 906.574134 739.931732 588.627303 457.892377 349.923886 263.754029 196.544562 144.865875 105.485445 75.692622 53.338112 36.749514 24.620996 15.920232 9.822700 5.668654 2.934433 1.211173 0.186728 -0.370982 -0.629535 -0.706158 -0.680057 -0.602680 -0.505878 -0.408146 -0.319209 -0.243284 -0.181314 -0.132450 -0.094992 -0.066965 -0.046443 -0.031710 -0.021324 -0.014129 -0.009228 -0.005942 -0.003773 -0.002363 -0.001460 -0.000890 -0.000535 -0.000318 -0.000186 -0.000108 -0.000061 -0.000035 -0.000019 -0.000011 -0.000006 -0.000003 -0.000002 -0.000001 -0.000000 -0.000000 -0.000000 -0.000000 -0.000000 -0.000000 -0.000000 -0.000000 -0.000000 -0.000000 -0.000000 -0.000000 -0.000000 -0.000000 -0.000000 -0.000000 -0.000000 -0.000000 -0.000000 -0.000000 -0.000000 -0.000000 -0.000000 0.000000 0.000000 0.000000 0.000000 0.000000 0.000000 10603.699836 10603.699836 10603.699836 10590.927246 10454.705400 10146.013134 9891.913667 9697.955351 9501.299334 9263.823131 8991.973232 8683.028074 8305.127613 7832.137091 7289.110936 6713.045643 6126.707251 5535.705011 4942.211635 4361.805237 3798.377651 3247.747702 2723.386972 2239.659998 1829.051612 1515.102621 1278.985969 1084.291788 906.574134 739.931732 588.627303 457.892377 349.923886 263.754029 196.544562 144.865875 105.485445 75.692622 53.338112 36.749514 24.620996 15.920232 9.822700 5.668654 2.934433 1.211173 0.186728 -0.370982 -0.629535 -0.706158 -0.680057 -0.602680 -0.505878 -0.408146 -0.319209 -0.243284 -0.181314 -0.132450 -0.094992 -0.066965 -0.046443 -0.031710 -0.021324 -0.014129 -0.009228 -0.005942 -0.003773 -0.002363 -0.001460 -0.000890 -0.000535 -0.000318 -0.000186 -0.000108 -0.000061 -0.000035 -0.000019 -0.000011 -0.000006 -0.000003 -0.000002 -0.000001 -0.000000 -0.000000 -0.000000 -0.000000 -0.000000 -0.000000 -0.000000 -0.000000 -0.000000 -0.000000 -0.000000 -0.000000 -0.000000 -0.000000 -0.000000 -0.000000 -0.000000 -0.000000 -0.000000 -0.000000 -0.000000 -0.000000 -0.000000 0.000000 0.000000 0.000000 0.000000 0.000000 0.000000 15144.700630 15144.700630 15144.700630 15192.316042 16080.239095 19077.546580 18166.487700 17683.486355 21250.450283 23533.210244 20739.911316 22777.280789 19788.622133 17949.997113 16784.684160 13386.509999 15590.911514 19225.644365 13044.456950 11925.534342 10306.576879 8625.420794 9406.501256 4817.760170 6830.052781 7434.891717 3658.724732 4844.062614 3628.532784 2583.890249 389.203761 5711.508158 455.881338 -8131.829038 -3185.084635 2680.315454 359.637788 -3306.363230 632.572903 1627.249497 -2391.839182 -1557.664262 1354.962719 469.905643 -1997.840537 -1142.087251 360.614282 1452.384839 -256.704234 -1482.729598 -208.221451 146.450994 -1750.415344 -2207.744551 -1570.908109 -1253.666266 15768.993685 15768.993685 15768.993685 15763.732969 17093.124760 22475.650181 22062.678000 23203.344915 24566.752604 24145.530748 25301.866233 23647.180396 26951.249583 24199.044933 26547.115581 27435.637406 30597.416759 28591.874041 28764.388041 29598.732270 29116.065120 24748.393794 24601.135310 26230.584640 23191.381184 28517.509905 24779.498805 24373.827776 25269.366385 21331.083857 25163.769198 19316.298347 19338.401221 19605.440691 20432.117019 18030.506671 20144.422363 20147.034580 19246.249107 17425.753065 18049.598859 16566.280530 16491.583281 15560.294898 15291.850782 14501.035840 13040.160427 13503.235388 11179.960567 9576.002034 10161.174579 4387.059327 5395.977755 62.017717 94.052659 -962.426573 16933.744954 16933.744954 16933.744954 16890.516575 17429.511660 21325.564904 28536.618081 36362.767782 24655.800966 28397.266117 26793.653942 26406.410977 27302.847155 28210.117549 32399.782884 27824.650745 28684.594216 31203.883627 31922.472145 27558.982842 29175.652960 27945.740520 25618.671408 29612.007374 27842.946029 24242.952140 25219.316381 25339.407389 25091.381169 20456.982160 20996.972152 20012.397735 20589.419937 18796.955488 18940.557382 17382.391426 18555.625105 16913.061025 16125.278540 15093.776095 14537.731409 14302.452802 13286.071438 12231.574162 7976.502441 12215.182227 11538.554052 8222.071919 5986.172342 5131.789691 3548.123471 3103.110190 -2680.022060 1799.915558 283.602421 267.128125 18289.829371 18289.829371 18289.829371 18384.071708 19069.981977 22636.799953 26072.524092 33403.185222 34837.000746 35164.152182 33767.206667 34985.597536 30366.057205 32368.440791 33422.279961 32878.802029 31657.191318 29934.705957 29875.810036 30178.855810 29051.625456 27944.262787 29772.523449 26253.434098 26173.501833 27470.990936 28752.821836 24784.384726 26651.532352 24418.568980 25319.470441 23525.149440 19486.186556 18243.616360 19377.400226 18236.403269 18956.513888 16320.916362 15499.957846 15822.179129 15748.651770 14558.563987 13254.635507 11929.463210 13167.186136 9697.686738 10073.519272 8285.935980 6388.303070 8408.637456 2179.968549 4164.955609 3785.513853 4815.904867 -2063.696655 3123.769266 19676.911090 19676.911090 19676.911090 19679.428100 20439.292388 25269.856190 26729.446043 30637.676150 30279.575401 33629.136378 31008.761948 33470.286334 34246.098180 33425.237711 35584.329751 34432.862531 33031.960504 36421.460780 31534.052920 32377.445118 31715.941436 34573.417671 27106.390420 34017.591647 30590.530914 26376.133960 27000.895326 23220.712960 22938.211020 24133.095489 24349.871108 20000.629977 21015.160686 20433.587190 16708.921202 17226.092576 16124.193215 16239.645475 14289.638027 13906.055811 11471.950263 12407.733685 9410.262268 10191.786671 8532.496494 6961.232422 7252.371856 6865.312522 5154.214713 49