<VTKFile type="PolyData">
<PolyData>
<Piece NumberOfPoints="8632" NumberOfVerts="8632" NumberOfLines="0" NumberOfStrips="0" NumberOfPolys="0">
<PointData>
<DataArray type="Float64" Name="Pressure" format="ascii">
 13007.737710 13007.737710 13007.737710 13003.958781 12962.975827 12863.557023 12753.337062 12609.179604 12397.152600 12091.099339 11690.603944 11217.685809 10700.577840 10161.691599 9611.443268 9043.174859 8441.501767 7798.295259 7124.839152 6434.677811 5725.661593 4992.104401 4240.738891 3488.169285 2715.272002 1920.612430 1225.314937 742.753352 471.018662 344.138344 285.489756 218.043958 95.785013 -38.391726 -104.042642 -91.358265 -43.589155 -19.772384 -73.123589 -184.807619 -262.798083 -281.719004 -291.692003 -358.392922 -506.946118 -673.225962 -803.880239 -937.348553 -1118.841631 -1306.010717 -1421.770103 -1462.758291 -1458.661022 -1428.917092 -1384.172353 -1330.149377 -1269.997206 -1206.318988 -1141.504092 -1077.120434 -1014.004207 -952.598801 -893.147241 -835.789029 -780.607407 -727.653288 -676.957725 -628.538363 -582.402597 -538.548902 -496.967235 -457.639029 -420.537109 -385.625725 -352.860766 -322.190196 -293.554680 -266.888372 -242.119798 -219.172811 -197.967554 -178.421405 -160.449883 -143.967482 -128.888439 -115.127418 -102.600115 -91.223785 -80.917688 -71.603465 -63.205448 -55.650903 -48.870220 -42.797043 -37.368356 -32.524526 -28.209305 -24.369804 -20.956462 -17.923029 -15.226672 -12.828391 -10.694264 -8.798453 -7.128725 -5.686544 -4.450352 -3.659059 -3.510029 -3.510029 -3.510029 13007.737710 13007.737710 13007.737710 13003.958781 12962.975827 12863.557023 12753.337062 12609.179604 12397.152600 12091.099339 11690.603944 11217.685809 10700.577840 10161.691599 9611.443268 9043.174859 8441.501767 7798.295259 7124.839152 6434.677811 5725.661593 4992.104401 4240.738891 3488.169285 2715.272002 1920.612430 1225.314937 742.753352 471.018662 344.138344 285.489756 218.043958 95.785013 -38.391726 -104.042642 -91.358265 -43.589155 -19.772384 -73.123589 -184.807619 -262.798083 -281.719004 -291.692003 -358.392922 -506.946118 -673.225962 -803.880239 -937.348553 -1118.841631 -1306.010717 -1421.770103 -1462.758291 -1458.661022 -1428.917092 -1384.172353 -1330.149377 -1269.997206 -1206.318988 -1141.504092 -1077.120434 -1014.004207 -952.598801 -893.147241 -835.789029 -780.607407 -727.653288 -676.957725 -628.538363 -582.402597 -538.548902 -496.967235 -457.639029 -420.537109 -385.625725 -352.860766 -322.190196 -293.554680 -266.888372 -242.119798 -219.172811 -197.967554 -178.421405 -160.449883 -143.967482 -128.888439 -115.127418 -102.600115 -91.223785 -80.917688 -71.603465 -63.205448 -55.650903 -48.870220 -42.797043 -37.368356 -32.524526 -28.209305 -24.369804 -20.956462 -17.923029 -15.226672 -12.828391 -10.694264 -8.798453 -7.128725 -5.686544 -4.450352 -3.659059 -3.510029 -3.510029 -3.510029 13007.737710 13007.737710 13007.737710 13003.958781 12962.975827 12863.557023 12753.337062 12609.179604 12397.152600 12091.099339 11690.603944 11217.685809 10700.577840 10161.691599 9611.443268 9043.174859 8441.501767 7798.295259 7124.839152 6434.677811 5725.661593 4992.104401 4240.738891 3488.169285 2715.272002 1920.612430 1225.314937 742.753352 471.018662 344.138344 285.489756 218.043958 95.785013 -38.391726 -104.042642 -91.358265 -43.589155 -19.772384 -73.123589 -184.807619 -262.798083 -281.719004 -291.692003 -358.392922 -506.946118 -673.225962 -803.880239 -937.348553 -1118.841631 -1306.010717 -1421.770103 -1462.758291 -1458.661022 -1428.917092 -1384.172353 -1330.149377 -1269.997206 -1206.318988 -1141.504092 -1077.120434 -1014.004207 -952.598801 -893.147241 -835.789029 -780.607407 -727.653288 -676.957725 -628.538363 -582.402597 -538.548902 -496.967235 -457.639029 -420.537109 -385.625725 -352.860766 -322.190196 -293.554680 -266.888372 -242.119798 -219.172811 -197.967554 -178.421405 -160.449883 -143.967482 -128.888439 -115.127418 -102.600115 -91.223785 -80.917688 -71.603465 -63.205448 -55.650903 -48.870220 -42.797043 -37.368356 -32.524526 -28.209305 -24.369804 -20.956462 -17.923029 -15.226672 -12.828391 -10.694264 -8.798453 -7.128725 -5.686544 -4.450352 -3.659059 -3.510029 -3.510029 -3.510029 13013.677016 13013.677016 13013.677016 13009.725279 12967.362378 12868.527213 12765.084696 12633.716151 12427.703956 12110.531518 11682.961225 11185.985355 10663.062523 10134.329795 9604.771316 9056.284588 8467.731970 7823.271472 7143.164482 6451.490224 5739.466502 4997.096798 4224.724736 3462.120144 2675.730991 1817.504883 1091.362456 634.035618 403.387031 313.284054 285.814296 236.291053 98.764457 -64.085445 -130.721525 -101.203277 -32.666000 8.699832 -44.647668 -202.183846 -282.687028 -284.205615 -272.012814 -323.184848 -492.131320 -688.201145 -801.693025 -912.563748 -1113.714685 -1328.913486 -1445.059580 -1477.860350 -1467.005085 -1433.586654 -1387.070699 -1332.209483 -1271.341128 -1207.006836 -1141.789198 -1077.221626 -1014.027304 -952.589443 -893.124339 -835.760383 -780.576269 -727.621050 -676.925014 -628.505496 -582.369765 -538.516250 -496.934891 -457.607117 -420.505749 -385.595033 -352.830852 -322.161159 -293.526611 -266.861346 -242.093878 -219.148047 -197.943982 -178.399048 -160.428754 -143.947581 -128.869758 -115.109940 -102.583817 -91.208637 -80.903655 -71.590507 -63.193523 -55.639965 -48.860223 -42.787938 -37.360094 -32.517056 -28.202572 -24.363743 -20.950979 -17.917959 -15.221663 -12.822627 -10.685848 -8.783488 -7.103490 -5.654565 -4.424674 -3.639202 -3.491519 -3.491519 -3.491519 13078.488859 13078.488859 13078.488859 13072.862812 13016.251422 12918.087749 12908.655203 12970.087518 12889.653009 12442.034537 11618.804674 10765.834207 10178.720946 9808.632233 9554.341957 9250.352465 8810.412839 8103.488527 7294.419967 6589.172653 5878.087726 5047.994907 3980.987620 3176.681677 2303.540188 452.869723 -640.164048 -648.593922 -339.031228 -15.861826 321.540231 589.805156 195.208340 -511.575041 -478.883191 -220.652441 92.603762 444.419094 359.671913 -493.346537 -606.415651 -314.597342 -13.750733 241.219116 -346.410534 -975.889166 -788.227992 -549.991779 -1097.898608 -1767.877711 -1744.405545 -1646.011045 -1557.568532 -1484.168820 -1418.983905 -1356.803039 -1287.713436 -1214.122088 -1144.631775 -1078.205588 -1014.244062 -952.489752 -892.892822 -835.472944 -780.264541 -727.298576 -676.597919 -628.176879 -582.041516 -538.189804 -496.611530 -457.288070 -420.192222 -385.288187 -352.531782 -321.870870 -293.245993 -266.591164 -241.834761 -218.900488 -197.708342 -178.175562 -160.217538 -143.748648 -128.683024 -114.935240 -102.420912 -91.057226 -80.763388 -71.460991 -63.074332 -55.530648 -48.760309 -42.696944 -37.277527 -32.442405 -28.135289 -24.303183 -20.896226 -17.867394 -15.171846 -12.765487 -10.601860 -8.627872 -6.790829 -5.234340 -4.107694 -3.412631 -3.288907 -3.288907 -3.288907 13171.104108 13171.104108 13171.104108 13159.104564 13096.375451 13034.236220 12900.762827 13638.481186 13900.058047 13712.311291 11628.988726 9680.573109 9337.839502 9351.301593 9800.278908 9527.567191 9598.973739 8460.178490 7025.366624 6413.381034 5660.330824 5330.746940 2929.897410 2574.872914 3259.287580 -3078.368859 -3833.208580 -2250.768692 -1218.079153 -392.465540 441.578366 1398.430404 438.832921 -1419.785161 -1070.813194 -373.672642 248.177475 1069.274468 880.791901 -951.710628 -1094.798129 -352.125806 358.680762 945.535861 -422.713613 -1560.278861 -787.281746 34.929554 -1026.153863 -2405.194117 -2170.077647 -1848.594939 -1664.261188 -1543.540486 -1457.514517 -1392.489668 -1318.514131 -1226.568006 -1149.117662 -1079.787361 -1014.669236 -952.446744 -892.657349 -835.157055 -779.914382 -726.933571 -676.226621 -627.803433 -581.668317 -537.818583 -496.243783 -456.925218 -419.835643 -384.939211 -352.191661 -321.540748 -292.926886 -266.283941 -241.540139 -218.619026 -197.440449 -177.921503 -159.977446 -143.522533 -128.470790 -114.736696 -102.235784 -90.885174 -80.604010 -71.313839 -62.938920 -55.406462 -48.646813 -42.593587 -37.183740 -32.357600 -28.058817 -24.234243 -20.833612 -17.808837 -15.112320 -12.692781 -10.484516 -8.378681 -6.119230 -4.461084 -3.611672 -3.102084 -3.008795 -3.008795 -3.008795 -4.142259 -3.409041 -3.022394 -2.970123 -2.970123 -2.970123 -3.417447 -3.003290 -2.743411 -2.707862 -2.707862 -2.707862 -2.580715 -2.440331 -2.324886 -2.308581 -2.308581 -2.308581 -2.049947 -1.997999 -1.953198 -1.946580 -1.946580 -1.946580 -1.664555 -1.646910 -1.632209 -1.630120 -1.630120 -1.630120 -1.365404 -1.361268 -1.358768 -1.358543 -1.358543 -1.358543 -1.124394 -1.125416 -1.127523 -1.127995 -1.127995 -1.127995 -0.926570 -0.929339 -0.932912 -0.933593 -0.933593 -0.933593 -0.762827 -0.765973 -0.769751 -0.770446 -0.770446 -0.770446 -0.626900 -0.629895 -0.633405 -0.634042 -0.634042 -0.634042 -0.514052 -0.516719 -0.519812 -0.520371 -0.520371 -0.520371 -0.420490 -0.422792 -0.425450 -0.425929 -0.425929 -0.425929 -0.343078 -0.345034 -0.347287 -0.347692 -0.347692 -0.347692 -0.279184 -0.280830 -0.282725 -0.283066 -0.283066 -0.283066 -0.226586 -0.227963 -0.229548 -0.229833 -0.229833 -0.229833 -0.183405 -0.184552 -0.185871 -0.186108 -0.186108 -0.186108 -0.148053 -0.149004 -0.150099 -0.150296 -0.150296 -0.150296 -0.119191 -0.119978 -0.120884 -0.121046 -0.121046 -0.121046 -0.095696 -0.096344 -0.097091 -0.097225 -0.097225 -0.097225 -0.076622 -0.077156 -0.077769 -0.077879 -0.077879 -0.077879 -0.061183 -0.061620 -0.062122 -0.062213 -0.062213 -0.062213 -0.048721 -0.049078 -0.049488 -0.049562 -0.049562 -0.049562 -0.038691 -0.038981 -0.039316 -0.039376 -0.039376 -0.039376 -0.030641 -0.030877 -0.031148 -0.031197 -0.031197 -0.031197 -0.024199 -0.024390 -0.024610 -0.024649 -0.024649 -0.024649 -0.019059 -0.019213 -0.019390 -0.019422 -0.019422 -0.019422 -0.014969 -0.015093 -0.015236 -0.015261 -0.015261 -0.015261 -0.011724 -0.011824 -0.011938 -0.011959 -0.011959 -0.011959 -0.009157 -0.009237 -0.009328 -0.009345 -0.009345 -0.009345 -0.007133 -0.007196 -0.007269 -0.007282 -0.007282 -0.007282 -0.005540 -0.005590 -0.005648 -0.005659 -0.005659 -0.005659 -0.004291 -0.004331 -0.004377 -0.004385 -0.004385 -0.004385 -0.003314 -0.003346 -0.003382 -0.003389 -0.003389 -0.003389 -0.002553 -0.002578 -0.002606 -0.002611 -0.002611 -0.002611 -0.001961 -0.001980 -0.002003 -0.002007 -0.002007 -0.002007 -0.001502 -0.001517 -0.001535 -0.001538 -0.001538 -0.001538 -0.001147 -0.001159 -0.001173 -0.001175 -0.001175 -0.001175 -0.000874 -0.000883 -0.000894 -0.000896 -0.000896 -0.000896 -0.000664 -0.000671 -0.000679 -0.000681 -0.000681 -0.000681 -0.000503 -0.000508 -0.000515 -0.000516 -0.000516 -0.000516 -0.000380 -0.000384 -0.000389 -0.000390 -0.000390 -0.000390 -0.000286 -0.000289 -0.000293 -0.000294 -0.000294 -0.000294 -0.000215 -0.000217 -0.000220 -0.000221 -0.000221 -0.000221 -0.000161 -0.000163 -0.000165 -0.000165 -0.000165 -0.000165 -0.000120 -0.000122 -0.000123 -0.000124 -0.000124 -0.000124 -0.000089 -0.000091 -0.000092 -0.000092 -0.000092 -0.000092 -0.000066 -0.000067 -0.000068 -0.000068 -0.000068 -0.000068 -0.000049 -0.000050 -0.000051 -0.000051 -0.000051 -0.000051 -0.000036 -0.000037 -0.000037 -0.000037 -0.000037 -0.000037 -0.000027 -0.000027 -0.000028 -0.000028 -0.000028 -0.000028 -0.000020 -0.000020 -0.000020 -0.000020 -0.000020 -0.000020 -0.000014 -0.000015 -0.000015 -0.000015 -0.000015 -0.000015 -0.000010 -0.000011 -0.000011 -0.000011 -0.000011 -0.000011 -0.000008 -0.000008 -0.000008 -0.000008 -0.000008 -0.000008 -0.000006 -0.000006 -0.000006 -0.000006 -0.000006 -0.000006 -0.000004 -0.000004 -0.000004 -0.000004 -0.000004 -0.000004 -0.000003 -0.000003 -0.000003 -0.000003 -0.000003 -0.000003 -0.000002 -0.000002 -0.000002 -0.000002 -0.000002 -0.000002 -0.000001 -0.000002 -0.000002 -0.000002 -0.000002 -0.000002 -0.000001 -0.000001 -0.000001 -0.000001 -0.000001 -0.000001 -0.000001 -0.000001 -0.000001 -0.000001 -0.000001 -0.000001 -0.000001 -0.000001 -0.000001 -0.000001 -0.000001 -0.000001 -0.000000 -0.000000 -0.000000 -0.000000 -0.000000 -0.000000 -0.000000 -0.000000 -0.000000 -0.000000 -0.000000 -0.000000 -0.000000 -0.000000 -0.000000 -0.000000 -0.000000 -0.000000 -0.000000 -0.000000 -0.000000 -0.000000 -0.000000 -0.000000 -0.000000 -0.000000 -0.000000 -0.000000 -0.000000 -0.000000 -0.000000 -0.000000 -0.000000 -0.000000 -0.000000 -0.000000 -0.000000 -0.000000 -0.000000 -0.000000 -0.000000 -0.000000 -0.000000 -0.000000 -0.000000 -0.000000 -0.000000 -0.000000 -0.000000 -0.000000 -0.000000 -0.000000 -0.000000 -0.000000 -0.000000 -0.000000 -0.000000 -0.000000 -0.000000 -0.000000 -0.000000 -0.000000 -0.000000 -0.000000 -0.000000 -0.000000 -0.000000 -0.000000 -0.000000 -0.000000 -0.000000 -0.000000 -0.000000 -0.000000 -0.000000 -0.000000 -0.000000 -0.000000 -0.000000 -0.000000 -0.000000 -0.000000 -0.000000 -0.000000 -0.000000 -0.000000 -0.000000 -0.000000 -0.000000 -0.000000 -0.000000 -0.000000 -0.000000 -0.000000 -0.000000 -0.000000 -0.000000 -0.000000 -0.000000 -0.000000 -0.000000 -0.000000 -0.000000 -0.000000 -0.000000 0.000000 0.000000 0.000000 -0.000000 -0.000000 -0.000000 0.000000 0.000000 0.000000 -0.000000 -0.000000 -0.000000 0.000000 0.000000 0.000000 -0.000000 -0.000000 -0.000000 0.000000 0.000000 0.000000 -0.000000 -0.000000 -0.000000 0.000000 0.000000 0.000000 -0.000000 -0.000000 -0.000000 0.000000 0.000000 0.000000 -0.000000 -0.000000 -0.000000 0.000000 0.000000 0.000000 -0.000000 -0.000000 -0.000000 0.000000 0.000000 0.000000 -0.000000 -0.000000 -0.000000 0.000000 0.000000 0.000000 -0.000000 -0.000000 -0.000000 0.000000 0.000000 0.000000 -0.000000 -0.000000 -0.000000 0.000000 0.000000 0.000000 -0.000000 -0.000000 -0.000000 0.000000 0.000000 0.000000 -0.000000 -0.000000 -0.000000 0.000000 0.000000 0.000000 -0.000000 -0.000000 -0.000000 0.000000 0.000000 0.000000 -0.000000 -0.000000 -0.000000 0.000000 0.000000 0.000000 -0.000000 -0.000000 -0.000000 0.000000 0.000000 0.000000 -0.000000 -0.000000 -0.000000 0.000000 0.000000 0.000000 -0.000000 -0.000000 -0.000000 0.000000 0.000000 0.000000 -0.000000 -0.000000 -0.000000 0.000000 0.000000 0.000000 -0.000000 -0.000000 -0.000000 0.000000 0.000000 0.000000 -0.000000 -0.000000 -0.000000 0.000000 0.000000 0.000000 -0.000000 -0.000000 -0.000000 0.000000 0.000000 0.000000 -0.000000 -0.000000 -0.000000 0.000000 0.000000 0.000000 -0.000000 -0.000000 -0.000000 0.000000 0.000000 0.000000 -0.000000 -0.000000 -0.000000 0.000000 0.000000 0.000000 -0.000000 -0.000000 -0.000000 0.000000 0.000000 0.000000 -0.000000 -0.000000 -0.000000 0.000000 0.000000 0.000000 -0.000000 -0.000000 -0.000000 0.000000 0.000000 0.000000 -0.000000 -0.000000 -0.000000 0.000000 0.000000 0.000000 -0.000000 -0.000000 -0.000000 0.000000 0.000000 0.000000 -0.000000 -0.000000 -0.000000 0.000000 0.000000 0.000000 -0.000000 -0.000000 -0.000000 0.000000 0.000000 0.000000 -0.000000 -0.000000 -0.000000 0.000000 0.000000 0.000000 -0.000000 -0.000000 -0.000000 0.000000 0.000000 0.000000 -0.000000 -0.000000 -0.000000 0.000000 0.000000 0.000000 -0.000000 -0.000000 -0.000000 0.000000 0.000000 0.000000 -0.000000 -0.000000 -0.000000 0.000000 0.000000 0.000000 -0.000000 -0.000000 -0.000000 0.000000 0.000000 0.000000 -0.000000 -0.000000 -0.000000 0.000000 0.000000 0.000000 -0.000000 -0.000000 -0.000000 0.000000 0.000000 0.000000 -0.000000 -0.000000 -0.000000 0.000000 0.000000 0.000000 -0.000000 -0.000000 -0.000000 0.000000 0.000000 0.000000 -0.000000 -0.000000 -0.000000 0.000000 0.000000 0.000000 -0.000000 -0.000000 -0.000000 0.000000 0.000000 0.000000 -0.000000 -0.000000 -0.000000 0.000000 0.000000 0.000000 -0.000000 -0.000000 -0.000000 0.000000 0.000000 0.000000 -0.000000 -0.000000 -0.000000 0.000000 0.000000 0.000000 -0.000000 -0.000000 -0.000000 0.000000 0.000000 0.000000 -0.000000 -0.000000 -0.000000 0.000000 0.000000 0.000000 0.000000 -0.000000 -0.000000 0.000000 0.000000 0.000000 0.000000 0.000000 0.000000 0.000000 0.000000 0.000000 0.000000 0.000000 0.000000 0.000000 0.000000 0.000000 0.000000 0.000000 0.000000 0.000000 0.000000 0.000000 0.000000 0.000000 0.000000 0.000000 0.000000 0.000000 0.000000 0.000000 0.000000 0.000000 0.000000 0.000000 0.000000 0.000000 0.000000 0.000000 0.000000 0.000000 0.000000 0.000000 0.000000 0.000000 0.000000 0.000000 0.000000 0.000000 0.000000 0.000000 0.000000 0.000000 0.000000 0.000000 0.000000 0.000000 0.000000 0.000000 0.000001 0.000001 0.000001 0.000001 0.000001 0.000001 0.000001 0.000001 0.000001 0.000001 0.000001 0.000001 0.000002 0.000003 0.000003 0.000003 0.000003 0.000003 0.000005 0.000005 0.000005 0.000005 0.000005 0.000005 0.000009 0.000009 0.000010 0.000010 0.000010 0.000010 0.000017 0.000017 0.000018 0.000019 0.000019 0.000019 0.000031 0.000032 0.000034 0.000034 0.000034 0.000034 0.000056 0.000058 0.000062 0.000062 0.000062 0.000062 0.000100 0.000105 0.000110 0.000111 0.000111 0.000111 0.000177 0.000185 0.000194 0.000196 0.000196 0.000196 0.000310 0.000323 0.000338 0.000341 0.000341 0.000341 0.000533 0.000554 0.000579 0.000583 0.000583 0.000583 0.000904 0.000938 0.000977 0.000985 0.000985 0.000985 0.001511 0.001564 0.001626 0.001637 0.001637 0.001637 0.002488 0.002570 0.002666 0.002683 0.002683 0.002683 0.004036 0.004161 0.004306 0.004333 0.004333 0.004333 0.006449 0.006635 0.006852 0.006891 0.006891 0.006891 0.010149 0.010421 0.010738 0.010795 0.010795 0.010795 0.015729 0.016119 0.016573 0.016655 0.016655 0.016655 0.023999 0.024549 0.025186 0.025301 0.025301 0.025301 0.036048 0.036806 0.037681 0.037839 0.037839 0.037839 0.053289 0.054310 0.055489 0.055701 0.055701 0.055701 0.077514 0.078859 0.080407 0.080686 0.080686 0.080686 0.110914 0.112641 0.114626 0.114983 0.114983 0.114983 0.156073 0.158232 0.160710 0.161154 0.161154 0.161154 0.215901 0.218522 0.221523 0.222061 0.222061 0.222061 0.293491 0.296568 0.300082 0.300711 0.300711 0.300711 0.391873 0.395345 0.399300 0.400007 0.400007 0.400007 0.513647 0.517378 0.521618 0.522375 0.522375 0.522375 0.660481 0.664246 0.668507 0.669266 0.669266 0.669266 0.832489 0.835949 0.839846 0.840537 0.840537 0.840537 1.027488 1.030190 1.033200 1.033731 1.033731 1.033731 1.240216 1.241588 1.243060 1.243314 1.243314 1.243314 1.461558 1.460931 1.460106 1.459947 1.459947 1.459947 1.677907 1.674555 1.670609 1.669891 1.669891 1.669891 1.870791 1.863987 1.856099 1.854675 1.854675 1.854675 2.016890 2.005986 1.993430 1.991172 1.991172 1.991172 2.088594 2.073118 2.055368 2.052182 2.052182 2.052182 2.055197 2.034955 2.011802 2.007653 2.007653 2.007653 1.884774 1.859947 1.831611 1.826541 1.826541 1.826541 1.546714 1.517940 1.485157 1.479297 1.479297 1.479297 1.014774 0.983191 0.947267 0.940852 0.940852 0.940852 0.270434 0.237682 0.200484 0.193847 0.193847 0.193847 -0.693777 -0.725621 -0.761732 -0.768169 -0.768169 -0.768169 -1.871369 -1.899909 -1.932216 -1.937970 -1.937970 -1.937970 -3.239795 -3.262499 -3.288134 -3.292692 -3.292692 -3.292692 -4.759563 -4.773980 -4.790173 -4.793044 -4.793044 -4.793044 -6.374817 -6.378824 -6.383180 -6.383937 -6.383937 -6.383937 -8.015549 -8.007588 -7.998352 -7.996684 -7.996684 -7.996684 -9.601376 -9.580658 -9.556943 -9.552693 -9.552693 -9.552693 -11.046651 -11.013296 -10.975245 -10.968439 -10.968439 -10.968439 -12.266472 -12.221573 -12.170426 -12.161284 -12.161284 -12.161284 -13.183019 -13.128631 -13.066702 -13.055636 -13.055636 -13.055636 -13.731573 -13.670639 -13.601225 -13.588818 -13.588818 -13.588818 -13.865561 -13.801845 -13.729123 -13.716111 -13.716111 -13.716111 -13.559991 -13.498151 -13.427191 -13.414457 -13.414457 -13.414457 -12.812685 -12.758770 -12.695937 -12.684565 -12.684565 -12.684565 -11.642583 -11.605587 -11.559884 -11.551361 -11.551361 -11.551361 -10.083760 -10.079822 -10.066351 -10.063061 -10.063061 -10.063061 -8.171764 -8.235697 -8.283364 -8.289521 -8.289521 -8.289521 -5.911175 -6.133781 -6.299000 -6.321132 -6.321132 -6.321132 -3.179071 -3.873748 -4.215582 -4.260236 -4.260236 -4.260236 22513.893826 22513.893826 22513.893826 22435.722234 21413.951843 25252.680257 30441.204513 26546.230682 24828.193641 24329.281346 24721.437245 22522.336361 17639.752232 18213.863282 20191.697561 17742.343135 18756.301357 16031.964422 15710.404122 17716.863910 19752.487292 18539.864694 17652.167079 20586.729321 18675.966941 19866.261227 20871.017939 14877.850745 15831.827828 16129.627829 15762.710559 17978.023430 18049.354206 11551.737062 9426.833513 8900.261473 -5491.564739 -7095.717379 -2781.309296 -364.727532 1553.406194 3379.634727 707.662424 -2767.144800 -1368.266414 -42.356239 634.684263 1244.908943 2439.539762 3361.396908 -1046.150481 -3178.298743 -1656.368941 -961.760858 -643.670150 -478.431284 -379.684413 -310.011295 -253.323781 -203.044562 -156.866844 -114.358813 -75.840864 -41.841532 -12.826425 10.933279 29.412034 42.829871 51.618795 56.369185 57.767570 56.535181 53.374195 48.925984 43.743129 38.274892 32.864335 27.754426 23.100226 18.984398 15.433712 12.434831 9.948226 7.919620 6.288788 4.995827 3.985238 3.208195 2.623451 2.197255 1.902613 1.718141 1.626718 1.614050 1.667253 1.773515 1.918865 2.087064 2.258548 2.409179 2.508168 2.513551 2.361039 1.936490 0.947217 -0.496412 -1.491356 -2.021629 -2.117124 -2.117124 -2.117124 22351.355663 22351.355663 22351.355663 22374.081023 22198.870426 24085.815568 25884.773608 24635.614183 24879.981622 24572.648962 24339.296674 22177.624441 18876.023794 19842.561790 19754.679915 17622.101876 17973.184323 16450.555751 17427.883632 18128.146581 18128.130359 17194.316360 16534.844913 17006.327074 16797.920932 16687.267088 15829.601864 14779.399147 14177.653264 13227.778136 12394.619516 11097.147587 10482.227999 9148.304427 6914.014506 5773.732176 1810.969689 223.615172 524.630513 1334.899948 1994.953465 2366.282990 1170.271024 -204.567866 111.536049 496.515178 777.393240 1026.331521 1284.918713 1278.185006 -179.242779 -1054.908497 -861.367501 -645.959630 -505.170137 -416.109789 -351.398033 -297.194581 -247.611679 -200.645247 -156.054879 -114.339910 -76.236806 -42.458245 -13.551520 10.174113 28.672414 42.148998 51.023577 55.875287 57.380612 56.252394 53.186453 48.819970 43.703390 38.285593 32.910594 27.823211 23.180842 19.068619 15.515663 12.510703 10.015901 7.978276 6.338521 5.037325 4.019516 3.236392 2.646688 2.216538 1.918776 1.731819 1.638338 1.623843 1.675285 1.779741 1.923247 2.089795 2.260529 2.413048 2.520611 2.550646 2.461643 2.198517 1.720210 1.086925 0.492956 0.116448 0.046353 0.046353 0.046353 22270.820814 22270.820814 22270.820814 22271.952857 22249.357621 22280.115794 22136.671535 21833.242562 21956.646187 22101.742555 22206.763805 21971.521046 21558.400285 21358.552213 21074.257303 20478.934742 19842.107704 19139.832872 18603.009519 18227.046610 17878.467875 17462.697752 17023.204374 16619.367512 16194.784565 15752.479858 15227.197358 14556.702698 13809.656918 12928.176253 11957.480119 10932.903955 9875.133158 8812.691947 7776.767291 6639.708036 5221.482165 3981.777789 3235.136523 2841.847978 2590.941136 2287.569884 1806.624595 1322.171339 1056.737531 953.326950 907.822283 870.529357 790.442973 573.037524 184.992578 -162.868571 -329.060928 -379.059224 -380.272223 -358.572241 -325.062378 -285.225614 -242.288724 -198.445982 -155.370776 -114.426730 -76.736125 -43.181839 -14.386435 9.305510 27.827902 41.371708 50.343532 55.310167 56.936897 55.927119 52.969444 48.696261 43.655534 38.295645 32.961643 27.900405 23.271950 19.164202 15.608951 12.597278 10.093281 8.045462 6.395574 5.084996 4.058936 3.268846 2.673444 2.238741 1.937375 1.747540 1.651669 1.635046 1.684427 1.786753 1.928037 2.092471 2.261847 2.415388 2.530096 2.581833 2.547602 2.410525 2.170195 1.855385 1.512438 1.252639 1.194824 1.194824 1.194824 22262.014537 22262.014537 22262.014537 22258.117328 22207.783737 22049.973779 21857.359880 21717.485712 21705.726097 21811.874453 21917.145962 21853.752201 21655.276869 21472.878467 21199.377875 20703.013549 20083.114924 19418.374692 18830.833661 18351.110972 17929.393187 17508.519964 17076.826254 16639.940404 16181.831099 15697.414552 15151.676780 14511.807657 13775.263606 12927.105691 11995.069823 11006.021290 9989.311105 8975.380973 7957.233994 6854.719860 5617.395849 4465.570351 3617.273567 3070.508363 2691.070554 2325.657953 1893.456626 1472.780715 1182.113617 1019.973853 927.999109 850.984412 733.658404 520.244858 212.924563 -76.656031 -258.170064 -339.923228 -361.114738 -349.614620 -320.938963 -283.347786 -241.455049 -198.105989 -155.272447 -114.453015 -76.830165 -43.313261 -14.536549 9.149882 27.676758 41.232606 50.221776 55.208901 56.857286 55.868655 52.930331 48.673844 43.646711 38.297220 32.970595 27.914081 23.288158 19.181248 15.625618 12.612768 10.107141 8.057509 6.405814 5.093558 4.066021 3.274682 2.678257 2.242734 1.940720 1.750365 1.654062 1.637054 1.686060 1.787999 1.928874 2.092905 2.261989 2.415600 2.531323 2.586313 2.560231 2.440552 2.230165 1.952467 1.639910 1.398769 1.347928 1.347928 1.347928 22262.014537 22262.014537 22262.014537 22258.117328 22207.783737 22049.973779 21857.359880 21717.485712 21705.726097 21811.874453 21917.145962 21853.752201 21655.276869 21472.878467 21199.377875 20703.013549 20083.114924 19418.374692 18830.833661 18351.110972 17929.393187 17508.519964 17076.826254 16639.940404 16181.831099 15697.414552 15151.676780 14511.807657 13775.263606 12927.105691 11995.069823 11006.021290 9989.311105 8975.380973 7957.233994 6854.719860 5617.395849 4465.570351 3617.273567 3070.508363 2691.070554 2325.657953 1893.456626 1472.780715 1182.113617 1019.973853 927.999109 850.984412 733.658404 520.244858 212.924563 -76.656031 -258.170064 -339.923228 -361.114738 -349.614620 -320.938963 -283.347786 -241.455049 -198.105989 -155.272447 -114.453015 -76.830165 -43.313261 -14.536549 9.149882 27.676758 41.232606 50.221776 55.208901 56.857286 55.868655 52.930331 48.673844 43.646711 38.297220 32.970595 27.914081 23.288158 19.181248 15.625618 12.612768 10.107141 8.057509 6.405814 5.093558 4.066021 3.274682 2.678257 2.242734 1.940720 1.750365 1.654062 1.637054 1.686060 1.787999 1.928874 2.092905 2.261989 2.415600 2.531323 2.586313 2.560231 2.440552 2.230165 1.952467 1.639910 1.398769 1.347928 1.347928 1.347928 22262.014537 22262.014537 22262.014537 22258.117328 22207.783737 22049.973779 21857.359880 21717.485712 21705.726097 21811.874453 21917.145962 21853.752201 21655.276869 21472.878467 21199.377875 20703.013549 20083.114924 19418.374692 18830.833661 18351.110972 17929.393187 17508.519964 17076.826254 16639.940404 16181.831099 15697.414552 15151.676780 14511.807657 13775.263606 12927.105691 11995.069823 11006.021290 9989.311105 8975.380973 7957.233994 6854.719860 5617.395849 4465.570351 3617.273567 3070.508363 2691.070554 2325.657953 1893.456626 1472.780715 1182.113617 1019.973853 927.999109 850.984412 733.658404 520.244858 212.924563 -76.656031 -258.170064 -339.923228 -361.114738 -349.614620 -320.938963 -283.347786 -241.455049 -198.105989 -155.272447 -114.453015 -76.830165 -43.313261 -14.536549 9.149882 27.676758 41.232606 50.221776 55.208901 56.857286 55.868655 52.930331 48.673844 43.646711 38.297220 32.970595 27.914081 23.288158 19.181248 15.625618 12.612768 10.107141 8.057509 6.405814 5.093558 4.066021 3.274682 2.678257 2.242734 1.940720 1.750365 1.654062 1.637054 1.686060 1.787999 1.928874 2.092905 2.261989 2.415600 2.531323 2.586313 2.560231 2.440552 2.230165 1.952467 1.639910 1.398769 1.347928 1.347928 1.347928 13183.546592 13183.546592 13183.546592 13169.386360 13149.082713 13111.973741 12889.321334 13797.838398 14095.259789 14142.007648 11780.185881 9662.119825 9398.037479 9227.720280 9863.343173 9567.028466 9644.603107 8286.061101 6852.366032 6303.152048 5488.269527 5372.350869 2437.133798 2246.343828 3841.275084 -4129.481166 -4557.867102 -2378.077780 -1283.769486 -420.125609 461.752756 1520.313635 480.067777 -1527.163654 -1136.333385 -386.031436 260.282745 1112.085285 908.090570 -985.587008 -1130.776013 -355.453242 382.777138 954.937681 -492.889312 -1620.467064 -789.363080 79.097023 -993.943475 -2433.062757 -2201.319303 -1863.668607 -1672.017748 -1547.851562 -1460.408459 -1395.901971 13263.789621 13263.789621 13263.789621 13256.341266 13677.491229 13689.049779 11717.541772 15738.515320 11805.613280 11707.579759 11029.664040 11718.607645 13691.384708 13833.328047 12287.452589 13740.871515 15301.415116 11635.702347 16766.097142 13948.245729 14200.822828 14370.936320 13304.705407 12901.764713 14232.457465 13959.897476 14464.657979 12955.045157 10087.835756 12652.058776 15096.276363 12754.651419 14284.985503 14087.512017 15793.617550 13877.106767 12123.520184 14502.913207 12870.877606 12880.598467 13532.517127 12882.359992 14405.928410 12610.549233 14427.452474 13632.796728 15388.291489 13558.310247 14074.548678 13172.440513 15570.488271 15058.382892 12951.254910 4050.250946 28.172114 -1208.831393 13411.388837 13411.388837 13411.388837 13396.442345 13434.167114 13263.946388 10801.235844 10746.979120 11929.973059 12739.636947 11777.635106 12293.226117 14010.549144 10831.170577 11453.616166 11523.192878 12488.133994 12997.389132 13499.269183 13274.913052 13667.596817 12814.350830 12643.289886 13003.372573 12015.269234 13903.738658 11957.254897 14226.691033 11615.734475 12775.716196 13110.227194 12668.644179 15844.105782 13855.086504 13905.043206 14366.847184 15204.309768 11779.940579 14815.354436 14371.932607 14615.412090 15785.340610 12873.541016 14727.714116 16982.393349 14227.841358 15085.269869 12889.707800 14865.164591 14394.671148 13110.471799 13490.042904 6131.724329 9276.570569 22.529440 67.298786 13654.136710 13654.136710 13654.136710 13547.511255 12186.408554 12148.949044 11899.586882 14000.908991 11265.622935 10786.134213 9356.985101 9109.363680 12484.182019 15322.447921 12365.379925 13241.726095 14867.098621 14048.816652 12612.900531 12726.540631 14340.499098 13024.017882 12383.062766 12966.769740 14016.882219 14436.246154 14705.293247 12140.812438 15304.030292 15666.457393 12957.245243 12260.980564 16188.718802 15826.936182 15524.324234 16060.342455 17956.114808 13046.088747 13813.012403 13970.563952 15213.329708 15702.679945 15332.483091 15828.983744 15405.276280 13580.862674 15549.839606 14767.370063 15370.000410 15129.849801 14596.406719 15116.349531 1480.645904 13650.752251 2316.880197 3426.560896 13990.411744 