<VTKFile type="PolyData">
<PolyData>
<Piece NumberOfPoints="8632" NumberOfVerts="8632" NumberOfLines="0" NumberOfStrips="0" NumberOfPolys="0">
<PointData>
<DataArray type="Float64" Name="Pressure" format="ascii">
 10544.850273 10544.850273 10544.850273 10532.487464 10392.712417 10027.586206 9611.575111 9141.751851 8620.710940 8041.491771 7405.843847 6737.734193 6075.635920 5448.930667 4858.339921 4290.691808 3746.183490 3222.198108 2697.890230 2152.592816 1614.266395 1177.188186 907.603079 783.397364 741.247867 716.997170 651.208285 515.741481 364.544156 272.607982 206.667446 99.976499 -10.420256 -45.138181 -22.623267 -25.411796 -85.595642 -131.153310 -112.412851 -78.388981 -105.906386 -195.536686 -261.001023 -271.079510 -276.082999 -345.068094 -492.577718 -643.469532 -760.785543 -893.848239 -1067.023293 -1212.619438 -1278.340170 -1279.595670 -1244.920512 -1190.877087 -1126.060551 -1056.023458 -984.722349 -914.357324 -845.969940 -780.085603 -717.006103 -656.926711 -599.978552 -546.244115 -495.764193 -448.542582 -404.550443 -363.730679 -326.002276 -291.264452 -259.400529 -230.281453 -203.768969 -179.718426 -157.981258 -138.407149 -120.845895 -105.149012 -91.171091 -78.770925 -67.812443 -58.165447 -49.706192 -42.317810 -35.890603 -30.322214 -25.517687 -21.389433 -17.857118 -14.847464 -12.294006 -10.136781 -8.321988 -6.801605 -5.532989 -4.478464 -3.604897 -2.883281 -2.288346 -1.798223 -1.394230 -1.060946 -0.786652 -0.563039 -0.379706 -0.265384 -0.244096 -0.244096 -0.244096 10544.850273 10544.850273 10544.850273 10532.487464 10392.712417 10027.586206 9611.575111 9141.751851 8620.710940 8041.491771 7405.843847 6737.734193 6075.635920 5448.930667 4858.339921 4290.691808 3746.183490 3222.198108 2697.890230 2152.592816 1614.266395 1177.188186 907.603079 783.397364 741.247867 716.997170 651.208285 515.741481 364.544156 272.607982 206.667446 99.976499 -10.420256 -45.138181 -22.623267 -25.411796 -85.595642 -131.153310 -112.412851 -78.388981 -105.906386 -195.536686 -261.001023 -271.079510 -276.082999 -345.068094 -492.577718 -643.469532 -760.785543 -893.848239 -1067.023293 -1212.619438 -1278.340170 -1279.595670 -1244.920512 -1190.877087 -1126.060551 -1056.023458 -984.722349 -914.357324 -845.969940 -780.085603 -717.006103 -656.926711 -599.978552 -546.244115 -495.764193 -448.542582 -404.550443 -363.730679 -326.002276 -291.264452 -259.400529 -230.281453 -203.768969 -179.718426 -157.981258 -138.407149 -120.845895 -105.149012 -91.171091 -78.770925 -67.812443 -58.165447 -49.706192 -42.317810 -35.890603 -30.322214 -25.517687 -21.389433 -17.857118 -14.847464 -12.294006 -10.136781 -8.321988 -6.801605 -5.532989 -4.478464 -3.604897 -2.883281 -2.288346 -1.798223 -1.394230 -1.060946 -0.786652 -0.563039 -0.379706 -0.265384 -0.244096 -0.244096 -0.244096 10544.850273 10544.850273 10544.850273 10532.487464 10392.712417 10027.586206 9611.575111 9141.751851 8620.710940 8041.491771 7405.843847 6737.734193 6075.635920 5448.930667 4858.339921 4290.691808 3746.183490 3222.198108 2697.890230 2152.592816 1614.266395 1177.188186 907.603079 783.397364 741.247867 716.997170 651.208285 515.741481 364.544156 272.607982 206.667446 99.976499 -10.420256 -45.138181 -22.623267 -25.411796 -85.595642 -131.153310 -112.412851 -78.388981 -105.906386 -195.536686 -261.001023 -271.079510 -276.082999 -345.068094 -492.577718 -643.469532 -760.785543 -893.848239 -1067.023293 -1212.619438 -1278.340170 -1279.595670 -1244.920512 -1190.877087 -1126.060551 -1056.023458 -984.722349 -914.357324 -845.969940 -780.085603 -717.006103 -656.926711 -599.978552 -546.244115 -495.764193 -448.542582 -404.550443 -363.730679 -326.002276 -291.264452 -259.400529 -230.281453 -203.768969 -179.718426 -157.981258 -138.407149 -120.845895 -105.149012 -91.171091 -78.770925 -67.812443 -58.165447 -49.706192 -42.317810 -35.890603 -30.322214 -25.517687 -21.389433 -17.857118 -14.847464 -12.294006 -10.136781 -8.321988 -6.801605 -5.532989 -4.478464 -3.604897 -2.883281 -2.288346 -1.798223 -1.394230 -1.060946 -0.786652 -0.563039 -0.379706 -0.265384 -0.244096 -0.244096 -0.244096 10545.145456 10545.145456 10545.145456 10533.195532 10395.324568 10031.635568 9612.495294 9145.526591 8638.231601 8070.326485 7431.731501 6750.082348 6074.231546 5442.623030 4856.183325 4288.050896 3745.989426 3230.175242 2711.779690 2154.630601 1577.474251 1115.196384 857.067740 756.779783 737.260573 733.341841 677.537690 521.152578 340.129943 261.712807 221.719242 99.097721 -42.143568 -67.157875 -13.299102 -4.418741 -92.511894 -155.656120 -118.075428 -56.950453 -81.588616 -208.950017 -283.166426 -275.793785 -258.776536 -317.110384 -499.359593 -663.118109 -760.310157 -889.588459 -1108.425110 -1244.772048 -1302.991029 -1294.004928 -1253.227014 -1195.902412 -1128.894627 -1057.372447 -985.271180 -914.557237 -846.025113 -780.081345 -716.977104 -656.887157 -599.934430 -546.198128 -495.717704 -448.496383 -404.505060 -363.686497 -325.959585 -291.223477 -259.361439 -230.244373 -203.733980 -179.685578 -157.950570 -138.378613 -120.819482 -105.124675 -91.148766 -78.750537 -67.793906 -58.148667 -49.691070 -42.304243 -35.878486 -30.311442 -25.508154 -21.381036 -17.849756 -14.841041 -12.288430 -10.131965 -8.317848 -6.798065 -5.529979 -4.475918 -3.602749 -2.881464 -2.286775 -1.796752 -1.392576 -1.058554 -0.783024 -0.558732 -0.376560 -0.263213 -0.242180 -0.242180 -0.242180 10544.246488 10544.246488 10544.246488 10536.872743 10435.839982 10100.781963 9619.226540 9170.836523 8889.752964 8500.435924 7819.461333 6950.826905 6078.461251 5373.100910 4843.064541 4251.416720 3728.018725 3331.976814 2927.671612 2267.630983 1076.036306 273.303134 236.395078 455.785077 697.852933 950.032392 1100.961708 633.901965 -144.495177 103.823802 564.637275 142.051378 -589.685632 -373.569542 147.830351 445.573537 -243.568758 -591.802234 -201.432091 296.310523 345.449473 -479.037557 -644.424990 -336.504921 -2.041245 144.558425 -607.878032 -1016.851467 -731.726423 -791.235054 -1631.218235 -1822.129898 -1585.936491 -1453.385050 -1344.410425 -1253.552241 -1161.610418 -1071.079619 -990.701227 -916.499128 -846.550048 -780.027571 -716.682572 -656.489773 -599.492459 -545.737953 -495.252700 -448.034372 -404.051263 -363.244727 -325.532751 -290.813817 -258.970645 -229.873675 -203.384210 -179.357220 -157.643809 -138.093375 -120.555475 -104.881421 -90.925632 -78.546766 -67.608639 -57.980969 -49.539949 -42.168668 -35.757407 -30.203801 -25.412900 -21.297137 -17.776208 -14.776877 -12.232725 -10.083847 -8.276497 -6.762716 -5.499921 -4.450487 -3.581307 -2.863339 -2.271110 -1.782124 -1.376050 -1.033766 -0.738011 -0.501825 -0.337697 -0.238814 -0.221400 -0.221400 -0.221400 10527.001445 10527.001445 10527.001445 10528.242493 10533.460235 10412.491304 9646.676800 9170.960348 9565.645783 9679.104035 8672.247787 7421.453200 6327.204193 5170.969803 5146.576602 4149.451039 3659.674407 3555.793630 3385.789648 3024.196722 75.031052 -1581.186553 -626.064805 87.148536 658.225722 1265.625498 2153.749931 1046.493126 -1467.511616 -332.717179 1774.383594 363.128560 -2050.459255 -994.682383 562.052168 1457.895506 -607.777019 -1519.062981 -360.395002 909.944309 1025.079829 -1020.498654 -1272.682976 -419.232390 382.955880 775.830388 -855.837508 -1608.818401 -634.073535 -245.491417 -1807.630170 -2496.481031 -1960.030281 -1644.642676 -1454.192482 -1333.622061 -1219.437884 -1094.199754 -999.190330 -919.576623 -847.485046 -780.099847 -716.400275 -656.058421 -598.997658 -545.217425 -494.724738 -447.509099 -403.535104 -362.742207 -325.047249 -290.347897 -258.526235 -229.452170 -202.986548 -178.983945 -157.295125 -137.769193 -120.255456 -104.605017 -90.672120 -78.315279 -67.398199 -57.790509 -49.368337 -42.014732 -35.619949 -30.081617 -25.304793 -21.201933 -17.692763 -14.704091 -12.169549 -10.029285 -8.229617 -6.722646 -5.465851 -4.421654 -3.556965 -2.842670 -2.252997 -1.764547 -1.354411 -0.995687 -0.642386 -0.397686 -0.277157 -0.206415 -0.193570 -0.193570 -0.193570 -0.353344 -0.250349 -0.197011 -0.189863 -0.189863 -0.189863 -0.262555 -0.205820 -0.170549 -0.165760 -0.165760 -0.165760 -0.167374 -0.148579 -0.133157 -0.130972 -0.130972 -0.130972 -0.115127 -0.108256 -0.102315 -0.101436 -0.101436 -0.101436 -0.082226 -0.079852 -0.077838 -0.077548 -0.077548 -0.077548 -0.059940 -0.059278 -0.058802 -0.058744 -0.058744 -0.058744 -0.044121 -0.044087 -0.044165 -0.044191 -0.044191 -0.044191 -0.032590 -0.032759 -0.033001 -0.033049 -0.033049 -0.033049 -0.024072 -0.024280 -0.024540 -0.024589 -0.024589 -0.024589 -0.017744 -0.017935 -0.018164 -0.018206 -0.018206 -0.018206 -0.013039 -0.013197 -0.013383 -0.013417 -0.013417 -0.013417 -0.009546 -0.009671 -0.009816 -0.009843 -0.009843 -0.009843 -0.006961 -0.007057 -0.007168 -0.007188 -0.007188 -0.007188 -0.005054 -0.005127 -0.005211 -0.005226 -0.005226 -0.005226 -0.003654 -0.003708 -0.003771 -0.003782 -0.003782 -0.003782 -0.002630 -0.002670 -0.002717 -0.002725 -0.002725 -0.002725 -0.001885 -0.001914 -0.001949 -0.001955 -0.001955 -0.001955 -0.001345 -0.001366 -0.001392 -0.001396 -0.001396 -0.001396 -0.000955 -0.000971 -0.000989 -0.000993 -0.000993 -0.000993 -0.000675 -0.000687 -0.000700 -0.000703 -0.000703 -0.000703 -0.000475 -0.000484 -0.000493 -0.000495 -0.000495 -0.000495 -0.000333 -0.000339 -0.000346 -0.000347 -0.000347 -0.000347 -0.000232 -0.000237 -0.000242 -0.000243 -0.000243 -0.000243 -0.000162 -0.000165 -0.000168 -0.000169 -0.000169 -0.000169 -0.000112 -0.000114 -0.000116 -0.000117 -0.000117 -0.000117 -0.000077 -0.000078 -0.000080 -0.000081 -0.000081 -0.000081 -0.000053 -0.000054 -0.000055 -0.000055 -0.000055 -0.000055 -0.000036 -0.000037 -0.000038 -0.000038 -0.000038 -0.000038 -0.000024 -0.000025 -0.000026 -0.000026 -0.000026 -0.000026 -0.000017 -0.000017 -0.000017 -0.000017 -0.000017 -0.000017 -0.000011 -0.000011 -0.000012 -0.000012 -0.000012 -0.000012 -0.000008 -0.000008 -0.000008 -0.000008 -0.000008 -0.000008 -0.000005 -0.000005 -0.000005 -0.000005 -0.000005 -0.000005 -0.000003 -0.000003 -0.000004 -0.000004 -0.000004 -0.000004 -0.000002 -0.000002 -0.000002 -0.000002 -0.000002 -0.000002 -0.000001 -0.000002 -0.000002 -0.000002 -0.000002 -0.000002 -0.000001 -0.000001 -0.000001 -0.000001 -0.000001 -0.000001 -0.000001 -0.000001 -0.000001 -0.000001 -0.000001 -0.000001 -0.000000 -0.000000 -0.000000 -0.000000 -0.000000 -0.000000 -0.000000 -0.000000 -0.000000 -0.000000 -0.000000 -0.000000 -0.000000 -0.000000 -0.000000 -0.000000 -0.000000 -0.000000 -0.000000 -0.000000 -0.000000 -0.000000 -0.000000 -0.000000 -0.000000 -0.000000 -0.000000 -0.000000 -0.000000 -0.000000 -0.000000 -0.000000 -0.000000 -0.000000 -0.000000 -0.000000 -0.000000 -0.000000 -0.000000 -0.000000 -0.000000 -0.000000 -0.000000 -0.000000 -0.000000 -0.000000 -0.000000 -0.000000 -0.000000 -0.000000 -0.000000 -0.000000 -0.000000 -0.000000 -0.000000 -0.000000 -0.000000 -0.000000 -0.000000 -0.000000 -0.000000 -0.000000 -0.000000 -0.000000 -0.000000 -0.000000 -0.000000 -0.000000 -0.000000 -0.000000 -0.000000 -0.000000 -0.000000 -0.000000 -0.000000 -0.000000 -0.000000 -0.000000 -0.000000 -0.000000 -0.000000 -0.000000 -0.000000 -0.000000 -0.000000 -0.000000 -0.000000 -0.000000 -0.000000 -0.000000 -0.000000 -0.000000 -0.000000 -0.000000 -0.000000 -0.000000 -0.000000 -0.000000 -0.000000 -0.000000 -0.000000 -0.000000 -0.000000 -0.000000 -0.000000 0.000000 0.000000 0.000000 -0.000000 -0.000000 -0.000000 0.000000 0.000000 0.000000 -0.000000 -0.000000 -0.000000 0.000000 0.000000 0.000000 -0.000000 -0.000000 -0.000000 0.000000 0.000000 0.000000 -0.000000 -0.000000 -0.000000 0.000000 0.000000 0.000000 -0.000000 -0.000000 -0.000000 0.000000 0.000000 0.000000 -0.000000 -0.000000 -0.000000 0.000000 0.000000 0.000000 -0.000000 -0.000000 -0.000000 0.000000 0.000000 0.000000 -0.000000 -0.000000 -0.000000 0.000000 0.000000 0.000000 -0.000000 -0.000000 -0.000000 0.000000 0.000000 0.000000 -0.000000 -0.000000 -0.000000 0.000000 0.000000 0.000000 -0.000000 -0.000000 -0.000000 0.000000 0.000000 0.000000 -0.000000 -0.000000 -0.000000 0.000000 0.000000 0.000000 -0.000000 -0.000000 -0.000000 0.000000 0.000000 0.000000 -0.000000 -0.000000 -0.000000 0.000000 0.000000 0.000000 -0.000000 -0.000000 -0.000000 0.000000 0.000000 0.000000 -0.000000 -0.000000 -0.000000 0.000000 0.000000 0.000000 -0.000000 -0.000000 -0.000000 0.000000 0.000000 0.000000 -0.000000 -0.000000 -0.000000 0.000000 0.000000 0.000000 -0.000000 -0.000000 -0.000000 0.000000 0.000000 0.000000 -0.000000 -0.000000 -0.000000 0.000000 0.000000 0.000000 -0.000000 -0.000000 -0.000000 0.000000 0.000000 0.000000 -0.000000 -0.000000 -0.000000 0.000000 0.000000 0.000000 -0.000000 -0.000000 -0.000000 0.000000 0.000000 0.000000 -0.000000 -0.000000 -0.000000 0.000000 0.000000 0.000000 -0.000000 -0.000000 -0.000000 0.000000 0.000000 0.000000 -0.000000 -0.000000 -0.000000 0.000000 0.000000 0.000000 -0.000000 -0.000000 -0.000000 0.000000 0.000000 0.000000 -0.000000 -0.000000 -0.000000 0.000000 0.000000 0.000000 -0.000000 -0.000000 -0.000000 0.000000 0.000000 0.000000 -0.000000 -0.000000 -0.000000 0.000000 0.000000 0.000000 -0.000000 -0.000000 -0.000000 0.000000 0.000000 0.000000 -0.000000 -0.000000 -0.000000 0.000000 0.000000 0.000000 -0.000000 -0.000000 -0.000000 0.000000 0.000000 0.000000 -0.000000 -0.000000 -0.000000 0.000000 0.000000 0.000000 -0.000000 -0.000000 -0.000000 0.000000 0.000000 0.000000 -0.000000 -0.000000 -0.000000 0.000000 0.000000 0.000000 -0.000000 -0.000000 -0.000000 0.000000 0.000000 0.000000 -0.000000 -0.000000 -0.000000 0.000000 0.000000 0.000000 -0.000000 -0.000000 -0.000000 0.000000 0.000000 0.000000 -0.000000 -0.000000 -0.000000 0.000000 0.000000 0.000000 -0.000000 -0.000000 -0.000000 0.000000 0.000000 0.000000 -0.000000 -0.000000 -0.000000 0.000000 0.000000 0.000000 -0.000000 -0.000000 -0.000000 0.000000 0.000000 0.000000 -0.000000 -0.000000 -0.000000 0.000000 0.000000 0.000000 -0.000000 -0.000000 -0.000000 0.000000 0.000000 0.000000 -0.000000 -0.000000 -0.000000 0.000000 0.000000 0.000000 -0.000000 -0.000000 -0.000000 0.000000 0.000000 0.000000 -0.000000 -0.000000 -0.000000 0.000000 0.000000 0.000000 -0.000000 -0.000000 -0.000000 0.000000 0.000000 0.000000 -0.000000 -0.000000 -0.000000 0.000000 0.000000 0.000000 -0.000000 -0.000000 -0.000000 0.000000 0.000000 0.000000 -0.000000 -0.000000 -0.000000 0.000000 0.000000 0.000000 -0.000000 -0.000000 -0.000000 0.000000 0.000000 0.000000 -0.000000 -0.000000 -0.000000 0.000000 0.000000 0.000000 -0.000000 -0.000000 -0.000000 0.000000 0.000000 0.000000 -0.000000 -0.000000 -0.000000 0.000000 0.000000 0.000000 -0.000000 -0.000000 -0.000000 0.000000 0.000000 0.000000 -0.000000 -0.000000 -0.000000 0.000000 0.000000 0.000000 -0.000000 -0.000000 -0.000000 0.000000 0.000000 0.000000 -0.000000 -0.000000 -0.000000 0.000000 0.000000 0.000000 -0.000000 -0.000000 -0.000000 0.000000 0.000000 0.000000 -0.000000 -0.000000 -0.000000 0.000000 0.000000 0.000000 -0.000000 -0.000000 -0.000000 0.000000 0.000000 0.000000 -0.000000 -0.000000 -0.000000 0.000000 0.000000 0.000000 -0.000000 -0.000000 -0.000000 0.000000 0.000000 0.000000 -0.000000 -0.000000 -0.000000 0.000000 0.000000 0.000000 -0.000000 -0.000000 -0.000000 0.000000 0.000000 0.000000 -0.000000 -0.000000 -0.000000 0.000000 0.000000 0.000000 -0.000000 -0.000000 -0.000000 0.000000 0.000000 0.000000 -0.000000 -0.000000 -0.000000 0.000000 0.000000 0.000000 -0.000000 -0.000000 -0.000000 0.000000 0.000000 0.000000 -0.000000 -0.000000 -0.000000 0.000000 0.000000 0.000000 -0.000000 -0.000000 -0.000000 0.000000 0.000000 0.000000 -0.000000 -0.000000 -0.000000 0.000000 0.000000 0.000000 -0.000000 -0.000000 -0.000000 0.000000 0.000000 0.000000 -0.000000 -0.000000 -0.000000 0.000000 0.000000 0.000000 -0.000000 -0.000000 -0.000000 0.000000 0.000000 0.000000 -0.000000 -0.000000 -0.000000 0.000000 0.000000 0.000000 -0.000000 -0.000000 -0.000000 0.000000 0.000000 0.000000 -0.000000 -0.000000 -0.000000 0.000000 0.000000 0.000000 -0.000000 -0.000000 -0.000000 0.000000 0.000000 0.000000 -0.000000 -0.000000 -0.000000 0.000000 0.000000 0.000000 -0.000000 -0.000000 -0.000000 0.000000 0.000000 0.000000 -0.000000 -0.000000 -0.000000 0.000000 0.000000 0.000000 -0.000000 -0.000000 -0.000000 0.000000 0.000000 0.000000 -0.000000 -0.000000 -0.000000 0.000000 0.000000 0.000000 -0.000000 -0.000000 -0.000000 0.000000 0.000000 0.000000 -0.000000 -0.000000 -0.000000 0.000000 0.000000 0.000000 -0.000000 -0.000000 -0.000000 0.000000 0.000000 0.000000 -0.000000 -0.000000 -0.000000 0.000000 0.000000 0.000000 -0.000000 -0.000000 -0.000000 0.000000 0.000000 0.000000 -0.000000 -0.000000 -0.000000 0.000000 0.000000 0.000000 -0.000000 -0.000000 -0.000000 0.000000 0.000000 0.000000 -0.000000 -0.000000 -0.000000 0.000000 0.000000 0.000000 -0.000000 -0.000000 -0.000000 0.000000 0.000000 0.000000 -0.000000 -0.000000 -0.000000 0.000000 0.000000 0.000000 -0.000000 -0.000000 -0.000000 0.000000 0.000000 0.000000 -0.000000 -0.000000 -0.000000 0.000000 0.000000 0.000000 -0.000000 -0.000000 -0.000000 0.000000 0.000000 0.000000 -0.000000 -0.000000 -0.000000 0.000000 0.000000 0.000000 -0.000000 -0.000000 -0.000000 0.000000 0.000000 0.000000 -0.000000 -0.000000 -0.000000 0.000000 0.000000 0.000000 -0.000000 -0.000000 -0.000000 0.000000 0.000000 0.000000 -0.000000 -0.000000 -0.000000 -0.000000 -0.000000 -0.000000 -0.000000 -0.000000 -0.000000 -0.000000 -0.000000 -0.000000 -0.000000 -0.000000 -0.000000 -0.000000 -0.000000 -0.000000 -0.000000 -0.000000 -0.000000 -0.000000 -0.000000 -0.000000 -0.000000 -0.000000 -0.000000 -0.000000 -0.000000 -0.000000 -0.000000 -0.000000 -0.000000 -0.000000 -0.000000 -0.000000 -0.000000 -0.000000 -0.000000 -0.000000 -0.000000 -0.000000 -0.000000 -0.000000 -0.000000 -0.000000 -0.000000 -0.000000 -0.000000 -0.000000 -0.000000 -0.000000 -0.000000 -0.000000 -0.000000 -0.000000 -0.000000 -0.000000 -0.000000 -0.000000 -0.000000 -0.000000 -0.000000 -0.000000 -0.000000 -0.000000 -0.000000 -0.000000 -0.000000 -0.000000 -0.000000 -0.000000 -0.000000 -0.000000 -0.000000 -0.000000 -0.000000 -0.000000 -0.000000 -0.000000 -0.000000 -0.000000 -0.000000 -0.000000 -0.000000 -0.000000 -0.000000 -0.000000 -0.000000 -0.000000 -0.000000 -0.000000 -0.000000 -0.000000 -0.000000 -0.000000 -0.000000 -0.000000 -0.000000 -0.000000 -0.000000 -0.000000 -0.000000 -0.000000 -0.000000 -0.000000 -0.000000 -0.000000 -0.000000 -0.000000 -0.000000 -0.000000 -0.000000 -0.000000 -0.000000 -0.000000 -0.000000 -0.000000 -0.000000 -0.000000 -0.000000 -0.000000 -0.000000 -0.000000 -0.000000 -0.000000 -0.000000 -0.000000 -0.000000 -0.000000 -0.000000 -0.000000 -0.000000 -0.000000 -0.000000 -0.000000 -0.000000 -0.000000 -0.000000 -0.000000 -0.000000 -0.000000 -0.000000 -0.000000 -0.000000 -0.000000 -0.000000 -0.000000 -0.000000 -0.000000 -0.000000 -0.000000 -0.000000 -0.000000 -0.000000 -0.000000 -0.000000 -0.000000 -0.000000 -0.000000 -0.000000 -0.000000 -0.000000 -0.000000 -0.000000 -0.000000 -0.000000 -0.000000 -0.000000 -0.000000 -0.000000 -0.000000 -0.000000 -0.000000 -0.000000 -0.000000 -0.000000 -0.000000 -0.000000 -0.000000 -0.000000 -0.000000 -0.000000 -0.000000 -0.000000 -0.000000 -0.000000 -0.000000 -0.000000 -0.000000 -0.000000 -0.000000 -0.000000 -0.000000 -0.000000 -0.000000 -0.000000 -0.000000 -0.000000 -0.000000 -0.000000 -0.000000 -0.000000 -0.000000 -0.000000 -0.000000 -0.000000 -0.000000 -0.000000 -0.000000 -0.000000 -0.000000 -0.000000 -0.000000 -0.000000 -0.000000 -0.000000 -0.000000 -0.000000 -0.000000 -0.000000 -0.000000 -0.000001 -0.000001 -0.000001 -0.000001 -0.000001 -0.000001 -0.000001 -0.000001 -0.000001 -0.000001 -0.000001 -0.000001 -0.000002 -0.000002 -0.000001 -0.000001 -0.000001 -0.000001 -0.000004 -0.000002 -0.000002 -0.000002 -0.000002 -0.000002 17712.062700 17712.062700 17712.062700 18052.601975 22264.020532 22619.326005 19094.063590 19691.872362 19310.683008 18132.837545 19050.983697 19243.849678 20220.760711 19803.624859 20312.766228 26418.721731 28041.942919 26565.954912 24452.944023 25543.422218 29256.398112 28215.918082 24721.070830 21667.974681 20952.095547 22830.237845 21245.736051 22311.480460 21472.784863 29385.795601 15369.404861 5173.936897 3202.208946 15941.585347 49013.579789 28960.492159 18627.227295 10853.427354 33874.638126 20484.959480 -18500.626448 -20419.202329 74411.623791 39514.399282 1352.215779 12559.999443 1347.628097 -1166.949127 -2209.997008 1535.046976 2721.805424 126.656097 63.719923 50.236454 40.808760 33.044072 26.632437 21.361667 17.049847 13.540113 10.697805 8.407945 6.572905 5.110264 3.950840 3.036912 2.320606 1.762459 1.330138 0.997320 0.742707 0.549176 0.403051 0.293480 0.211906 0.151629 0.107440 0.075313 0.052163 0.035641 0.023971 0.015822 0.010205 0.006390 0.003843 0.002177 0.001116 0.000462 0.000078 -0.000131 -0.000230 -0.000263 -0.000259 -0.000235 -0.000202 -0.000168 -0.000136 -0.000108 -0.000084 -0.000065 -0.000049 -0.000036 -0.000026 -0.000019 -0.000012 -0.000007 -0.000004 -0.000002 -0.000002 -0.000002 -0.000002 16694.376173 16694.376173 16694.376173 16821.512772 20078.552453 23075.800165 20414.953224 19294.401404 18056.330155 16594.920622 18068.018059 20213.488692 22185.296794 21746.320352 20671.533958 24046.333432 25265.265871 24794.987392 22597.778997 21217.551879 21595.658316 20567.853924 17858.202556 16199.978651 15572.714229 14885.873309 13770.154033 13613.927724 13767.856704 14124.983776 9661.897034 8139.443303 8416.021904 8925.726214 12788.616297 11665.136682 10174.362417 8729.158057 9507.750152 6998.223559 4053.414210 4330.156583 18038.347162 13807.023237 4086.465749 2189.280852 322.208744 -32.651689 321.102604 494.809816 254.032489 91.708612 62.610787 50.472148 41.041531 33.242415 26.799993 21.502505 17.167629 13.638102 10.778894 8.474687 6.627537 5.154733 3.986832 3.065875 2.343777 1.780885 1.344704 1.008763 0.751640 0.556106 0.408392 0.297569 0.215014 0.153976 0.109198 0.076621 0.053128 0.036346 0.024482 0.016190 0.010467 0.006574 0.003971 0.002265 0.001175 0.000501 0.000103 -0.000115 -0.000221 -0.000258 -0.000256 -0.000234 -0.000202 -0.000169 -0.000137 -0.000109 -0.000085 -0.000065 -0.000049 -0.000037 -0.000027 -0.000019 -0.000013 -0.000008 -0.000005 -0.000003 -0.000003 -0.000003 -0.000003 16113.697572 16113.697572 16113.697572 16149.988803 16675.424461 17941.644628 18231.494872 18498.643307 18718.894676 18913.857630 19472.789609 19886.233027 19988.047265 19598.757779 19058.326525 18726.980622 18007.504247 17035.399412 15752.862053 14743.588581 14047.589754 13400.966850 12655.338615 11976.626909 11411.352160 10896.988128 10480.207983 10202.245733 9959.730062 9643.754082 9189.084520 8720.172988 8166.673753 7616.266010 7274.320895 6934.367985 6420.752512 5920.056671 5736.142947 5376.278555 5047.597887 5166.206232 4222.961574 2361.272371 1227.703388 609.638470 305.383054 228.610601 205.069396 160.952587 107.006864 77.780952 62.261401 50.763338 41.309348 33.470236 26.992464 21.664316 17.302980 13.750733 10.872124 8.551442 6.690382 5.205902 4.028258 3.099222 2.370463 1.802115 1.361491 1.021956 0.761944 0.564103 0.414558 0.302291 0.218606 0.156689 0.111232 0.078134 0.054245 0.037164 0.025076 0.016616 0.010770 0.006788 0.004119 0.002366 0.001243 0.000546 0.000133 -0.000097 -0.000210 -0.000252 -0.000253 -0.000232 -0.000202 -0.000169 -0.000138 -0.000110 -0.000086 -0.000066 -0.000050 -0.000037 -0.000027 -0.000020 -0.000014 -0.000009 -0.000006 -0.000003 -0.000003 -0.000003 -0.000003 16033.230044 16033.230044 16033.230044 16063.950551 16399.273307 17185.087735 17849.242411 18411.078903 18896.961214 19298.127435 19606.755742 19700.455632 19514.860644 19090.943880 18518.803926 17866.073046 17003.182513 15968.620150 14903.570901 13991.380033 13297.394121 12692.048716 12068.084088 11461.830519 10911.613029 10431.818880 10055.528684 9765.730423 9496.013764 9219.163810 8913.597698 8520.503854 7978.876854 7419.296824 6977.285210 6580.186670 6116.326563 5653.813247 5300.189966 4902.422447 4394.989787 3732.067394 2693.807677 1581.905321 867.490491 487.694931 310.962856 234.900495 181.955543 133.483667 98.234085 76.753777 62.256592 50.817221 41.357497 33.511154 27.027034 21.693382 17.327296 13.770970 10.888878 8.565237 6.701678 5.215101 4.035708 3.105219 2.375264 1.805935 1.364512 1.024331 0.763800 0.565543 0.415668 0.303141 0.219253 0.157178 0.111599 0.078407 0.054447 0.037312 0.025183 0.016694 0.010825 0.006826 0.004146 0.002385 0.001256 0.000555 0.000138 -0.000093 -0.000208 -0.000250 -0.000252 -0.000232 -0.000202 -0.000169 -0.000138 -0.000110 -0.000086 -0.000066 -0.000050 -0.000037 -0.000027 -0.000020 -0.000014 -0.000009 -0.000006 -0.000003 -0.000003 -0.000003 -0.000003 16033.230044 16033.230044 16033.230044 16063.950551 16399.273307 17185.087735 17849.242411 18411.078903 18896.961214 19298.127435 19606.755742 19700.455632 19514.860644 19090.943880 18518.803926 17866.073046 17003.182513 15968.620150 14903.570901 13991.380033 13297.394121 12692.048716 12068.084088 11461.830519 10911.613029 10431.818880 10055.528684 9765.730423 9496.013764 9219.163810 8913.597698 8520.503854 7978.876854 7419.296824 6977.285210 6580.186670 6116.326563 5653.813247 5300.189966 4902.422447 4394.989787 3732.067394 2693.807677 1581.905321 867.490491 487.694931 310.962856 234.900495 181.955543 133.483667 98.234085 76.753777 62.256592 50.817221 41.357497 33.511154 27.027034 21.693382 17.327296 13.770970 10.888878 8.565237 6.701678 5.215101 4.035708 3.105219 2.375264 1.805935 1.364512 1.024331 0.763800 0.565543 0.415668 0.303141 0.219253 0.157178 0.111599 0.078407 0.054447 0.037312 0.025183 0.016694 0.010825 0.006826 0.004146 0.002385 0.001256 0.000555 0.000138 -0.000093 -0.000208 -0.000250 -0.000252 -0.000232 -0.000202 -0.000169 -0.000138 -0.000110 -0.000086 -0.000066 -0.000050 -0.000037 -0.000027 -0.000020 -0.000014 -0.000009 -0.000006 -0.000003 -0.000003 -0.000003 -0.000003 16033.230044 16033.230044 16033.230044 16063.950551 16399.273307 17185.087735 17849.242411 18411.078903 18896.961214 19298.127435 19606.755742 19700.455632 19514.860644 19090.943880 18518.803926 17866.073046 17003.182513 15968.620150 14903.570901 13991.380033 13297.394121 12692.048716 12068.084088 11461.830519 10911.613029 10431.818880 10055.528684 9765.730423 9496.013764 9219.163810 8913.597698 8520.503854 7978.876854 7419.296824 6977.285210 6580.186670 6116.326563 5653.813247 5300.189966 4902.422447 4394.989787 3732.067394 2693.807677 1581.905321 867.490491 487.694931 310.962856 234.900495 181.955543 133.483667 98.234085 76.753777 62.256592 50.817221 41.357497 33.511154 27.027034 21.693382 17.327296 13.770970 10.888878 8.565237 6.701678 5.215101 4.035708 3.105219 2.375264 1.805935 1.364512 1.024331 0.763800 0.565543 0.415668 0.303141 0.219253 0.157178 0.111599 0.078407 0.054447 0.037312 0.025183 0.016694 0.010825 0.006826 0.004146 0.002385 0.001256 0.000555 0.000138 -0.000093 -0.000208 -0.000250 -0.000252 -0.000232 -0.000202 -0.000169 -0.000138 -0.000110 -0.000086 -0.000066 -0.000050 -0.000037 -0.000027 -0.000020 -0.000014 -0.000009 -0.000006 -0.000003 -0.000003 -0.000003 -0.000003 10519.782898 10519.782898 10519.782898 10522.967429 10569.294003 10552.675206 9767.560867 9223.719375 9725.075339 9946.173963 8813.568054 7556.510996 6468.636048 5087.879649 5306.284723 4164.611294 3667.769029 3660.112028 3522.828851 3319.871245 -66.335459 -1970.587094 -739.933874 58.983570 655.510314 1305.183611 2357.126364 1144.801091 -1683.513188 -399.306532 2073.964535 408.425400 -2328.110123 -1097.089007 620.223488 1580.397450 -671.239444 -1656.683522 -382.177160 968.652691 1078.660702 -1084.872611 -1336.536149 -427.354071 409.102847 798.068840 -898.759235 -1654.288536 -615.954962 -124.756015 -1693.967600 -2498.712330 -1986.520028 -1658.729017 -1462.338805 -1340.868924 10429.463691 10429.463691 10429.463691 10458.724346 10869.057406 11266.507220 15036.391955 13767.821710 15850.700488 9647.651398 10059.144818 8884.231751 13531.688534 11487.811524 13571.040338 10738.609883 13168.371857 9881.356576 13841.955942 13196.043969 17217.149094 10458.711473 11249.248025 9830.807384 10029.490533 14693.573286 13597.437894 9538.628572 10995.064270 11754.129290 10710.790846 13432.146442 11338.640650 10823.969325 10539.602270 9827.607078 10809.682029 13026.252858 11134.331588 11274.949956 10074.596403 10916.528008 11512.815048 10770.023100 10527.850860 10768.667882 10687.390287 9240.396713 12071.364240 10731.151777 10646.560778 10438.061025 10569.488096 99.568156 -364.976124 -2217.706073 10232.109932 10232.109932 10232.109932 10265.756184 10669.873123 10224.717211 13296.035543 11358.307752 11720.895874 12269.500478 9728.766785 11743.891000 13584.474065 13328.038577 8499.139832 7388.260387 12264.263986 10881.584987 13112.806454 9387.070895 12101.282857 10622.035101 8103.933914 10294.524632 9789.891880 8606.698311 10358.658247 11021.720440 9389.674433 10456.755361 11914.922018 10467.527455 9840.889502 11645.248123 11166.019539 12905.278099 11661.319917 10173.349126 9669.711634 9381.838603 9850.761216 11009.304463 10314.739050 10415.020623 9289.132340 11193.523610 10999.442879 11264.926782 10396.816529 10818.406196 8067.391080 11405.864442 3018.932164 5962.487892 83.637761 123.811550 10038.935583 10038.935583 10038.935583 10040.026139 10471.833480 10785.177185 15215.625987 18232.235227 12418.371459 10701.924997 11286.477002 11151.894623 9524.456776 7678.855633 12753.571855 8984.493863 8072.042967 8300.555343 9896.194152 9933.047525 9180.762660 8796.971047 10723.738849 9295.795157 10037.571023 11697.075395 8313.969270 10341.871592 7008.856715 9772.868012 6653.812050 10708.059976 8797.584444 9361.248936 9131.052047 9231.638810 7772.998779 11857.008653 11120.173808 11264.164997 10051.106485 10455.013825 10211.464081 9412.497896 10959.566857 10780.728940 10380.589545 9386.331510 12839.112382 8819.226788 5051.889100 8525.180467 1307.714865 6973.372630 -455.877806 -920.634021 9886.970040 9886.970040 9886.970040 9907.495782 10418.034613 10351.517472 13080.562971 13051.748017 8688.208437 15094.805296 10870.403781 11391.681931 11887.931029 10294.710629 9290.302840 9984.388489 8471.947482 8752.698311 7441.407807 9841.031319 10544.589364 8028.946921 5018.394115 9386.185537 8479.604759 8498.636022 9688.575