<VTKFile type="PolyData">
<PolyData>
<Piece NumberOfPoints="8632" NumberOfVerts="8632" NumberOfLines="0" NumberOfStrips="0" NumberOfPolys="0">
<PointData>
<DataArray type="Float64" Name="Pressure" format="ascii">
 9446.092495 9446.092495 9446.092495 9484.185158 9897.967714 10888.769162 11761.740357 12462.399079 12974.375501 13289.202064 13434.155231 13451.869996 13366.001285 13193.939732 12955.095931 12661.157355 12316.326041 11927.703887 11506.509693 11067.313609 10617.671459 10162.544727 9707.389381 9255.197864 8805.012975 8356.520401 7910.445760 7466.514545 7023.496371 6580.288388 6136.637732 5692.625100 5248.912942 4813.633853 4389.875521 3967.867171 3561.886648 3186.638596 2823.277197 2465.973256 2157.088775 1855.943082 1561.603914 1275.181529 883.449339 504.161151 238.966487 107.354653 18.556703 -122.105090 -255.699941 -343.183221 -472.391790 -661.532226 -811.558059 -870.642517 -852.945365 -788.090355 -700.575793 -605.619725 -511.678586 -423.407347 -343.363672 -272.880551 -212.476955 -162.061845 -121.071093 -88.596288 -63.516967 -44.626710 -30.739537 -20.767549 -13.767551 -8.960027 -5.727058 -3.596631 -2.219999 -1.347188 -0.803935 -0.471847 -0.272405 -0.154698 -0.086419 -0.047486 -0.025665 -0.013642 -0.007131 -0.003665 -0.001852 -0.000920 -0.000449 -0.000216 -0.000102 -0.000047 -0.000021 -0.000010 -0.000004 -0.000002 -0.000001 -0.000000 -0.000000 -0.000000 -0.000000 -0.000000 -0.000000 -0.000000 -0.000000 -0.000000 -0.000000 -0.000000 -0.000000 9446.092495 9446.092495 9446.092495 9484.185158 9897.967714 10888.769162 11761.740357 12462.399079 12974.375501 13289.202064 13434.155231 13451.869996 13366.001285 13193.939732 12955.095931 12661.157355 12316.326041 11927.703887 11506.509693 11067.313609 10617.671459 10162.544727 9707.389381 9255.197864 8805.012975 8356.520401 7910.445760 7466.514545 7023.496371 6580.288388 6136.637732 5692.625100 5248.912942 4813.633853 4389.875521 3967.867171 3561.886648 3186.638596 2823.277197 2465.973256 2157.088775 1855.943082 1561.603914 1275.181529 883.449339 504.161151 238.966487 107.354653 18.556703 -122.105090 -255.699941 -343.183221 -472.391790 -661.532226 -811.558059 -870.642517 -852.945365 -788.090355 -700.575793 -605.619725 -511.678586 -423.407347 -343.363672 -272.880551 -212.476955 -162.061845 -121.071093 -88.596288 -63.516967 -44.626710 -30.739537 -20.767549 -13.767551 -8.960027 -5.727058 -3.596631 -2.219999 -1.347188 -0.803935 -0.471847 -0.272405 -0.154698 -0.086419 -0.047486 -0.025665 -0.013642 -0.007131 -0.003665 -0.001852 -0.000920 -0.000449 -0.000216 -0.000102 -0.000047 -0.000021 -0.000010 -0.000004 -0.000002 -0.000001 -0.000000 -0.000000 -0.000000 -0.000000 -0.000000 -0.000000 -0.000000 -0.000000 -0.000000 -0.000000 -0.000000 -0.000000 9446.092495 9446.092495 9446.092495 9484.185158 9897.967714 10888.769162 11761.740357 12462.399079 12974.375501 13289.202064 13434.155231 13451.869996 13366.001285 13193.939732 12955.095931 12661.157355 12316.326041 11927.703887 11506.509693 11067.313609 10617.671459 10162.544727 9707.389381 9255.197864 8805.012975 8356.520401 7910.445760 7466.514545 7023.496371 6580.288388 6136.637732 5692.625100 5248.912942 4813.633853 4389.875521 3967.867171 3561.886648 3186.638596 2823.277197 2465.973256 2157.088775 1855.943082 1561.603914 1275.181529 883.449339 504.161151 238.966487 107.354653 18.556703 -122.105090 -255.699941 -343.183221 -472.391790 -661.532226 -811.558059 -870.642517 -852.945365 -788.090355 -700.575793 -605.619725 -511.678586 -423.407347 -343.363672 -272.880551 -212.476955 -162.061845 -121.071093 -88.596288 -63.516967 -44.626710 -30.739537 -20.767549 -13.767551 -8.960027 -5.727058 -3.596631 -2.219999 -1.347188 -0.803935 -0.471847 -0.272405 -0.154698 -0.086419 -0.047486 -0.025665 -0.013642 -0.007131 -0.003665 -0.001852 -0.000920 -0.000449 -0.000216 -0.000102 -0.000047 -0.000021 -0.000010 -0.000004 -0.000002 -0.000001 -0.000000 -0.000000 -0.000000 -0.000000 -0.000000 -0.000000 -0.000000 -0.000000 -0.000000 -0.000000 -0.000000 -0.000000 9533.036915 9533.036915 9533.036915 9573.593317 10032.652072 11132.894237 12072.820636 12820.929327 13359.251266 13657.529717 13773.717693 13774.495015 13679.808712 13501.783137 13258.085726 12962.484659 12613.502980 12215.309894 11773.768787 11314.492477 10844.944173 10371.795858 9899.047005 9429.067243 8960.374472 8495.132579 8034.728161 7578.876358 7126.383388 6675.302867 6223.097320 5768.451020 5308.005515 4856.746197 4421.013014 3975.357582 3547.778279 3168.804550 2796.903855 2405.895173 2119.884399 1814.729142 1507.092080 1273.128032 822.990784 423.993523 166.061265 78.980735 36.924384 -126.268805 -272.501713 -327.306763 -442.880450 -675.228395 -839.862116 -893.341947 -866.160754 -794.586654 -703.433791 -606.792851 -512.099736 -423.498644 -343.312483 -272.770834 -212.347831 -161.932696 -120.951976 -88.492238 -63.429920 -44.556560 -30.684879 -20.726265 -13.737255 -8.938386 -5.711986 -3.586381 -2.213185 -1.342754 -0.801109 -0.470081 -0.271323 -0.154047 -0.086034 -0.047263 -0.025538 -0.013571 -0.007092 -0.003644 -0.001841 -0.000914 -0.000446 -0.000214 -0.000101 -0.000047 -0.000021 -0.000010 -0.000004 -0.000002 -0.000001 -0.000000 -0.000000 -0.000000 -0.000000 -0.000000 -0.000000 -0.000000 -0.000000 -0.000000 -0.000000 -0.000000 -0.000000 10518.662668 10518.662668 10518.662668 10626.667373 11856.208527 14342.539650 16046.372518 17389.660874 18279.214901 18160.225007 17771.220372 17548.823427 17440.351855 17227.765727 16903.500785 16565.345635 16230.701923 15755.187021 15059.266203 14367.148904 13724.866073 13066.649252 12431.958718 11730.839199 10999.347316 10314.295670 9643.413961 8978.322992 8397.566362 7857.816185 7291.772467 6722.866921 6088.944136 5489.776036 5048.987973 4256.477127 3537.159340 3213.358708 2703.828679 1564.318014 1971.686010 1358.715185 693.882183 1816.300795 -417.547457 -277.401767 -922.297753 -307.993889 562.674272 -244.033497 -735.165783 41.545556 21.961280 -960.099113 -1223.253052 -1156.576422 -1010.583695 -859.345678 -731.522836 -618.214102 -516.164906 -424.346529 -342.771707 -271.660392 -211.050162 -160.638017 -119.759390 -87.451436 -62.559873 -43.855927 -30.139390 -20.314551 -13.435348 -8.722892 -5.562018 -3.484477 -2.145488 -1.298740 -0.773075 -0.452577 -0.260601 -0.147602 -0.082231 -0.045059 -0.024284 -0.012870 -0.006707 -0.003437 -0.001731 -0.000857 -0.000417 -0.000200 -0.000094 -0.000043 -0.000020 -0.000009 -0.000004 -0.000002 -0.000001 -0.000000 -0.000000 -0.000000 -0.000000 -0.000000 -0.000000 -0.000000 -0.000000 -0.000000 -0.000000 -0.000000 -0.000000 12051.872059 12051.872059 12051.872059 12310.419454 14172.773469 20167.385870 24272.135603 25543.958526 26906.057966 24029.903089 22755.317934 22631.953492 23082.895820 23289.660275 22500.545442 22117.771247 21807.913591 21430.458438 20092.864461 19522.244760 18736.364994 18271.738702 17531.778846 16400.309541 15365.181308 14215.034445 12960.263930 11752.296892 10737.961950 9777.316582 8834.884933 8385.465269 7325.458919 7061.447045 6805.309498 5798.920435 3572.743574 4501.990106 4388.588490 -1399.561666 4322.359527 85.481762 -2813.622392 5127.037014 -4200.418764 -1531.406263 -3805.417386 -1455.442921 1606.698773 -662.299306 -1761.741871 629.558813 490.363659 -1670.777276 -1835.314300 -1514.939815 -1245.079919 -962.550136 -774.434286 -635.731154 -522.666648 -426.083893 -342.468402 -270.518754 -209.618759 -159.180579 -118.408104 -86.270453 -61.573372 -43.062900 -29.523350 -19.850748 -13.096138 -8.481422 -5.394428 -3.370907 -2.070246 -1.249950 -0.742083 -0.433277 -0.248811 -0.140534 -0.078071 -0.042656 -0.022920 -0.012110 -0.006291 -0.003213 -0.001613 -0.000796 -0.000386 -0.000184 -0.000086 -0.000040 -0.000018 -0.000008 -0.000003 -0.000001 -0.000001 -0.000000 -0.000000 -0.000000 -0.000000 -0.000000 -0.000000 -0.000000 -0.000000 -0.000000 -0.000000 -0.000000 -0.000000 -0.000000 -0.000000 -0.000000 -0.000000 -0.000000 -0.000000 -0.000000 -0.000000 -0.000000 -0.000000 -0.000000 -0.000000 -0.000000 -0.000000 -0.000000 -0.000000 -0.000000 -0.000000 -0.000000 -0.000000 -0.000000 -0.000000 -0.000000 -0.000000 -0.000000 -0.000000 -0.000000 -0.000000 -0.000000 -0.000000 -0.000000 -0.000000 -0.000000 -0.000000 -0.000000 -0.000000 -0.000000 -0.000000 -0.000000 -0.000000 -0.000000 -0.000000 -0.000000 -0.000000 -0.000000 -0.000000 -0.000000 -0.000000 -0.000000 -0.000000 -0.000000 -0.000000 -0.000000 -0.000000 -0.000000 -0.000000 -0.000000 -0.000000 -0.000000 -0.000000 -0.000000 -0.000000 -0.000000 -0.000000 -0.000000 -0.000000 -0.000000 -0.000000 -0.000000 -0.000000 -0.000000 -0.000000 -0.000000 -0.000000 -0.000000 -0.000000 -0.000000 -0.000000 -0.000000 -0.000000 -0.000000 -0.000000 -0.000000 -0.000000 -0.000000 -0.000000 -0.000000 -0.000000 -0.000000 -0.000000 -0.000000 -0.000000 -0.000000 -0.000000 -0.000000 -0.000000 -0.000000 -0.000000 -0.000000 -0.000000 -0.000000 -0.000000 -0.000000 -0.000000 -0.000000 -0.000000 -0.000000 -0.000000 -0.000000 -0.000000 -0.000000 -0.000000 -0.000000 -0.000000 -0.000000 -0.000000 -0.000000 -0.000000 -0.000000 -0.000000 -0.000000 -0.000000 -0.000000 -0.000000 -0.000000 -0.000000 -0.000000 -0.000000 -0.000000 -0.000000 -0.000000 -0.000000 -0.000000 -0.000000 -0.000000 -0.000000 -0.000000 -0.000000 -0.000000 -0.000000 -0.000000 -0.000000 -0.000000 -0.000000 -0.000000 -0.000000 -0.000000 -0.000000 -0.000000 -0.000000 -0.000000 -0.000000 -0.000000 -0.000000 -0.000000 -0.000000 -0.000000 -0.000000 -0.000000 -0.000000 -0.000000 -0.000000 -0.000000 -0.000000 -0.000000 -0.000000 -0.000000 -0.000000 -0.000000 -0.000000 -0.000000 -0.000000 -0.000000 -0.000000 -0.000000 -0.000000 -0.000000 -0.000000 -0.000000 -0.000000 -0.000000 -0.000000 -0.000000 -0.000000 -0.000000 -0.000000 -0.000000 -0.000000 -0.000000 -0.000000 -0.000000 -0.000000 -0.000000 -0.000000 -0.000000 -0.000000 -0.000000 -0.000000 -0.000000 -0.000000 -0.000000 -0.000000 -0.000000 -0.000000 -0.000000 -0.000000 -0.000000 -0.000000 -0.000000 -0.000000 -0.000000 -0.000000 -0.000000 -0.000000 -0.000000 -0.000000 -0.000000 -0.000000 -0.000000 -0.000000 -0.000000 -0.000000 -0.000000 -0.000000 -0.000000 -0.000000 -0.000000 -0.000000 -0.000000 -0.000000 -0.000000 -0.000000 -0.000000 -0.000000 -0.000000 -0.000000 -0.000000 -0.000000 -0.000000 -0.000000 -0.000000 -0.000000 -0.000000 -0.000000 -0.000000 -0.000000 -0.000000 -0.000000 -0.000000 -0.000000 -0.000000 -0.000000 -0.000000 -0.000000 -0.000000 -0.000000 -0.000000 -0.000000 -0.000000 -0.000000 -0.000000 -0.000000 -0.000000 -0.000000 -0.000000 -0.000000 -0.000000 -0.000000 -0.000000 -0.000000 -0.000000 -0.000000 -0.000000 -0.000000 -0.000000 -0.000000 -0.000000 -0.000000 -0.000000 0.000000 0.000000 0.000000 -0.000000 -0.000000 -0.000000 0.000000 0.000000 0.000000 -0.000000 -0.000000 -0.000000 0.000000 0.000000 0.000000 -0.000000 -0.000000 -0.000000 0.000000 0.000000 0.000000 -0.000000 -0.000000 -0.000000 0.000000 0.000000 0.000000 -0.000000 -0.000000 -0.000000 0.000000 0.000000 0.000000 -0.000000 -0.000000 -0.000000 0.000000 0.000000 0.000000 -0.000000 -0.000000 -0.000000 0.000000 0.000000 0.000000 -0.000000 -0.000000 -0.000000 0.000000 0.000000 0.000000 -0.000000 -0.000000 -0.000000 0.000000 0.000000 0.000000 -0.000000 -0.000000 -0.000000 0.000000 0.000000 0.000000 -0.000000 -0.000000 -0.000000 0.000000 0.000000 0.000000 -0.000000 -0.000000 -0.000000 0.000000 0.000000 0.000000 -0.000000 -0.000000 -0.000000 0.000000 0.000000 0.000000 -0.000000 -0.000000 -0.000000 0.000000 0.000000 0.000000 -0.000000 -0.000000 -0.000000 0.000000 0.000000 0.000000 -0.000000 -0.000000 -0.000000 0.000000 0.000000 0.000000 -0.000000 -0.000000 -0.000000 0.000000 0.000000 0.000000 -0.000000 -0.000000 -0.000000 0.000000 0.000000 0.000000 -0.000000 -0.000000 -0.000000 0.000000 0.000000 0.000000 -0.000000 -0.000000 -0.000000 0.000000 0.000000 0.000000 -0.000000 -0.000000 -0.000000 0.000000 0.000000 0.000000 -0.000000 -0.000000 -0.000000 0.000000 0.000000 0.000000 -0.000000 -0.000000 -0.000000 0.000000 0.000000 0.000000 -0.000000 -0.000000 -0.000000 0.000000 0.000000 0.000000 -0.000000 -0.000000 -0.000000 0.000000 0.000000 0.000000 -0.000000 -0.000000 -0.000000 0.000000 0.000000 0.000000 -0.000000 -0.000000 -0.000000 0.000000 0.000000 0.000000 -0.000000 -0.000000 -0.000000 0.000000 0.000000 0.000000 -0.000000 -0.000000 -0.000000 0.000000 0.000000 0.000000 -0.000000 -0.000000 -0.000000 0.000000 0.000000 0.000000 -0.000000 -0.000000 -0.000000 0.000000 0.000000 0.000000 -0.000000 -0.000000 -0.000000 0.000000 0.000000 0.000000 -0.000000 -0.000000 -0.000000 0.000000 0.000000 0.000000 -0.000000 -0.000000 -0.000000 0.000000 0.000000 0.000000 -0.000000 -0.000000 -0.000000 0.000000 0.000000 0.000000 -0.000000 -0.000000 -0.000000 0.000000 0.000000 0.000000 -0.000000 -0.000000 -0.000000 0.000000 0.000000 0.000000 -0.000000 -0.000000 -0.000000 0.000000 0.000000 0.000000 -0.000000 -0.000000 -0.000000 0.000000 0.000000 0.000000 -0.000000 -0.000000 -0.000000 0.000000 0.000000 0.000000 -0.000000 -0.000000 -0.000000 0.000000 0.000000 0.000000 -0.000000 -0.000000 -0.000000 0.000000 0.000000 0.000000 -0.000000 -0.000000 -0.000000 0.000000 0.000000 0.000000 -0.000000 -0.000000 -0.000000 0.000000 0.000000 0.000000 -0.000000 -0.000000 -0.000000 0.000000 0.000000 0.000000 -0.000000 -0.000000 -0.000000 0.000000 0.000000 0.000000 -0.000000 -0.000000 -0.000000 0.000000 0.000000 0.000000 -0.000000 -0.000000 -0.000000 0.000000 0.000000 0.000000 -0.000000 -0.000000 -0.000000 0.000000 0.000000 0.000000 -0.000000 -0.000000 -0.000000 0.000000 0.000000 0.000000 -0.000000 -0.000000 -0.000000 0.000000 0.000000 0.000000 -0.000000 -0.000000 -0.000000 0.000000 0.000000 0.000000 -0.000000 -0.000000 -0.000000 0.000000 0.000000 0.000000 -0.000000 -0.000000 -0.000000 0.000000 0.000000 0.000000 -0.000000 -0.000000 -0.000000 0.000000 0.000000 0.000000 -0.000000 -0.000000 -0.000000 0.000000 0.000000 0.000000 -0.000000 -0.000000 -0.000000 0.000000 0.000000 0.000000 -0.000000 -0.000000 -0.000000 0.000000 0.000000 0.000000 -0.000000 -0.000000 -0.000000 0.000000 0.000000 0.000000 -0.000000 -0.000000 -0.000000 0.000000 0.000000 0.000000 -0.000000 -0.000000 -0.000000 0.000000 0.000000 0.000000 -0.000000 -0.000000 -0.000000 0.000000 0.000000 0.000000 -0.000000 -0.000000 -0.000000 0.000000 0.000000 0.000000 -0.000000 -0.000000 -0.000000 0.000000 0.000000 0.000000 -0.000000 -0.000000 -0.000000 0.000000 0.000000 0.000000 -0.000000 -0.000000 -0.000000 0.000000 0.000000 0.000000 -0.000000 -0.000000 -0.000000 0.000000 0.000000 0.000000 -0.000000 -0.000000 -0.000000 0.000000 0.000000 0.000000 -0.000000 -0.000000 -0.000000 0.000000 0.000000 0.000000 -0.000000 -0.000000 -0.000000 0.000000 0.000000 0.000000 -0.000000 -0.000000 -0.000000 0.000000 0.000000 0.000000 -0.000000 -0.000000 -0.000000 0.000000 0.000000 0.000000 -0.000000 -0.000000 -0.000000 0.000000 0.000000 0.000000 -0.000000 -0.000000 -0.000000 0.000000 0.000000 0.000000 -0.000000 -0.000000 -0.000000 0.000000 0.000000 0.000000 -0.000000 -0.000000 -0.000000 0.000000 0.000000 0.000000 -0.000000 -0.000000 -0.000000 0.000000 0.000000 0.000000 -0.000000 -0.000000 -0.000000 0.000000 0.000000 0.000000 -0.000000 -0.000000 -0.000000 0.000000 0.000000 0.000000 -0.000000 -0.000000 -0.000000 0.000000 0.000000 0.000000 -0.000000 -0.000000 -0.000000 0.000000 0.000000 0.000000 -0.000000 -0.000000 -0.000000 0.000000 0.000000 0.000000 -0.000000 -0.000000 -0.000000 0.000000 0.000000 0.000000 -0.000000 -0.000000 -0.000000 0.000000 0.000000 0.000000 -0.000000 -0.000000 -0.000000 0.000000 0.000000 0.000000 -0.000000 -0.000000 -0.000000 0.000000 0.000000 0.000000 -0.000000 -0.000000 -0.000000 0.000000 0.000000 0.000000 -0.000000 -0.000000 -0.000000 0.000000 0.000000 0.000000 -0.000000 -0.000000 -0.000000 0.000000 0.000000 0.000000 -0.000000 -0.000000 -0.000000 0.000000 0.000000 0.000000 -0.000000 -0.000000 -0.000000 0.000000 0.000000 0.000000 -0.000000 -0.000000 -0.000000 0.000000 0.000000 0.000000 -0.000000 -0.000000 -0.000000 0.000000 0.000000 0.000000 -0.000000 -0.000000 -0.000000 0.000000 0.000000 0.000000 -0.000000 -0.000000 -0.000000 0.000000 0.000000 0.000000 -0.000000 -0.000000 -0.000000 0.000000 0.000000 0.000000 -0.000000 -0.000000 -0.000000 0.000000 0.000000 0.000000 -0.000000 -0.000000 -0.000000 0.000000 0.000000 0.000000 -0.000000 -0.000000 -0.000000 0.000000 0.000000 0.000000 -0.000000 -0.000000 -0.000000 0.000000 0.000000 0.000000 -0.000000 -0.000000 -0.000000 0.000000 0.000000 0.000000 -0.000000 -0.000000 -0.000000 0.000000 0.000000 0.000000 -0.000000 -0.000000 -0.000000 0.000000 0.000000 0.000000 -0.000000 -0.000000 -0.000000 0.000000 0.000000 0.000000 -0.000000 -0.000000 -0.000000 0.000000 0.000000 0.000000 -0.000000 -0.000000 -0.000000 0.000000 0.000000 0.000000 -0.000000 -0.000000 -0.000000 0.000000 0.000000 0.000000 -0.000000 -0.000000 -0.000000 0.000000 0.000000 0.000000 -0.000000 -0.000000 -0.000000 0.000000 0.000000 0.000000 -0.000000 -0.000000 -0.000000 0.000000 0.000000 0.000000 -0.000000 -0.000000 -0.000000 0.000000 0.000000 0.000000 -0.000000 -0.000000 -0.000000 0.000000 0.000000 0.000000 -0.000000 -0.000000 -0.000000 0.000000 0.000000 0.000000 -0.000000 -0.000000 -0.000000 -0.000000 -0.000000 -0.000000 -0.000000 -0.000000 -0.000000 -0.000000 -0.000000 -0.000000 -0.000000 -0.000000 -0.000000 -0.000000 -0.000000 -0.000000 -0.000000 -0.000000 -0.000000 -0.000000 -0.000000 -0.000000 -0.000000 -0.000000 -0.000000 -0.000000 -0.000000 -0.000000 0.000000 -0.000000 -0.000000 -0.000000 -0.000000 -0.000000 0.000000 -0.000000 -0.000000 -0.000000 -0.000000 -0.000000 0.000000 -0.000000 -0.000000 -0.000000 -0.000000 -0.000000 0.000000 -0.000000 -0.000000 -0.000000 -0.000000 -0.000000 0.000000 -0.000000 -0.000000 -0.000000 -0.000000 -0.000000 0.000000 -0.000000 -0.000000 -0.000000 -0.000000 -0.000000 0.000000 -0.000000 -0.000000 -0.000000 -0.000000 -0.000000 0.000000 -0.000000 -0.000000 -0.000000 -0.000000 -0.000000 0.000000 -0.000000 -0.000000 -0.000000 -0.000000 -0.000000 0.000000 -0.000000 -0.000000 -0.000000 -0.000000 -0.000000 0.000000 -0.000000 -0.000000 -0.000000 -0.000000 -0.000000 0.000000 -0.000000 -0.000000 -0.000000 -0.000000 -0.000000 0.000000 -0.000000 -0.000000 -0.000000 -0.000000 -0.000000 0.000000 -0.000000 -0.000000 -0.000000 -0.000000 -0.000000 0.000000 -0.000000 -0.000000 -0.000000 -0.000000 -0.000000 0.000000 -0.000000 -0.000000 -0.000000 -0.000000 -0.000000 0.000000 -0.000000 -0.000000 -0.000000 -0.000000 -0.000000 0.000000 -0.000000 -0.000000 -0.000000 -0.000000 -0.000000 0.000000 -0.000000 -0.000000 -0.000000 -0.000000 -0.000000 0.000000 -0.000000 -0.000000 -0.000000 -0.000000 -0.000000 0.000000 -0.000000 -0.000000 -0.000000 -0.000000 -0.000000 0.000000 -0.000000 -0.000000 -0.000000 -0.000000 -0.000000 0.000000 -0.000000 -0.000000 -0.000000 -0.000000 -0.000000 0.000000 -0.000000 -0.000000 -0.000000 -0.000000 -0.000000 0.000000 -0.000000 -0.000000 -0.000000 -0.000000 -0.000000 0.000000 -0.000000 -0.000000 -0.000000 -0.000000 -0.000000 0.000000 -0.000000 -0.000000 -0.000000 -0.000000 -0.000000 0.000000 -0.000000 -0.000000 -0.000000 -0.000000 -0.000000 0.000000 -0.000000 -0.000000 -0.000000 -0.000000 -0.000000 0.000000 -0.000000 -0.000000 -0.000000 -0.000000 -0.000000 0.000000 -0.000000 -0.000000 -0.000000 -0.000000 -0.000000 0.000000 -0.000000 -0.000000 -0.000000 -0.000000 -0.000000 0.000000 -0.000000 -0.000000 -0.000000 -0.000000 -0.000000 0.000000 -0.000000 -0.000000 -0.000000 -0.000000 -0.000000 -0.000000 -0.000000 0.000000 0.000000 0.000000 0.000000 10230.903017 10230.903017 10230.903017 10372.396495 11683.101897 10337.880326 7347.978310 7475.988355 7525.937186 6682.316183 6200.167483 4624.344566 3851.596082 4788.831734 3918.911105 2738.020157 2890.753438 1650.632963 1597.752344 917.003927 116.140701 -523.580822 -340.514171 -860.636363 -1477.502244 733.655463 1457.207798 962.030681 541.335829 283.649841 141.591218 66.880837 28.842096 9.923671 0.643244 -3.853030 -5.922896 -6.676195 -6.652552 -6.152938 -5.380187 -4.487097 -3.587950 -2.760585 -2.049383 -1.471228 -1.023247 -0.690582 -0.452876 -0.288929 -0.179516 -0.108720 -0.064235 -0.037050 -0.020875 -0.011496 -0.006191 -0.003262 -0.001682 -0.000849 -0.000420 -0.000203 -0.000097 -0.000045 -0.000020 -0.000009 -0.000004 -0.000002 -0.000001 -0.000000 -0.000000 -0.000000 -0.000000 -0.000000 -0.000000 -0.000000 -0.000000 -0.000000 -0.000000 -0.000000 -0.000000 -0.000000 -0.000000 -0.000000 -0.000000 -0.000000 -0.000000 -0.000000 -0.000000 -0.000000 -0.000000 -0.000000 -0.000000 -0.000000 -0.000000 -0.000000 -0.000000 -0.000000 -0.000000 -0.000000 -0.000000 -0.000000 -0.000000 -0.000000 -0.000000 -0.000000 -0.000000 0.000000 -0.000000 -0.000000 -0.000000 8855.128197 8855.128197 8855.128197 8896.060677 9470.158914 9141.602579 7963.128220 8314.637613 8969.314786 8385.015900 7796.489124 7316.594973 7207.945513 7477.371576 6874.635640 5860.228881 5300.218802 4526.332612 3900.112401 3242.369401 2465.620350 1882.005520 1624.202353 1120.892443 848.545425 1115.395798 1103.910186 776.680045 465.495790 258.483710 135.573087 66.861384 30.073494 11.014530 1.363446 -3.422393 -5.670455 -6.526231 -6.563625 -6.103773 -5.358776 -4.485064 -3.598474 -2.778008 -2.069321 -1.490645 -1.040358 -0.704597 -0.463706 -0.296896 -0.185130 -0.112527 -0.066726 -0.038628 -0.021845 -0.012075 -0.006527 -0.003452 -0.001787 -0.000905 -0.000449 -0.000219 -0.000104 -0.000049 -0.000022 -0.000010 -0.000004 -0.000002 -0.000001 -0.000000 -0.000000 -0.000000 -0.000000 -0.000000 -0.000000 -0.000000 -0.000000 -0.000000 -0.000000 -0.000000 -0.000000 -0.000000 -0.000000 -0.000000 -0.000000 -0.000000 -0.000000 0.000000 -0.000000 -0.000000 0.000000 -0.000000 -0.000000 -0.000000 -0.000000 -0.000000 -0.000000 -0.000000 -0.000000 -0.000000 0.000000 -0.000000 -0.000000 0.000000 -0.000000 -0.000000 -0.000000 -0.000000 -0.000000 -0.000000 -0.000000 8117.521720 8117.521720 8117.521720 8146.990683 8464.135459 9115.230622 9659.385625 10150.859548 10455.626747 10407.738198 10151.406587 9794.475926 9383.056341 8932.017688 8323.502765 7578.232743 6804.244210 6023.851124 5260.541606 4510.601018 3782.287496 3111.087436 2503.835284 1952.676949 1514.439018 1196.550719 908.744420 631.270579 401.469340 237.238044 131.189374 67.626041 31.704521 12.311617 2.189743 -2.936671 -5.388207 -6.359017 -6.464207 -6.048382 -5.334241 -4.482258 -3.609912 -2.797404 -2.091743 -1.512636 -1.059844 -0.720639 -0.476159 -0.306096 -0.191640 -0.116958 -0.069637 -0.040479 -0.022986 -0.012759 -0.006925 -0.003678 -0.001912 -0.000973 -0.000485 -0.000237 -0.000113 -0.000053 -0.000024 -0.000011 -0.000005 -0.000002 -0.000001 -0.000000 -0.000000 -0.000000 -0.000000 -0.000000 -0.000000 -0.000000 -0.000000 -0.000000 -0.000000 -0.000000 -0.000000 -0.000000 -0.000000 -0.000000 -0.000000 -0.000000 -0.000000 -0.000000 -0.000000 -0.000000 -0.000000 -0.000000 -0.000000 -0.000000 -0.000000 -0.000000 -0.000000 -0.000000 -0.000000 -0.000000 -0.000000 -0.000000 -0.000000 -0.000000 -0.000000 -0.000000 -0.000000 0.000000 0.000000 0.000000 0.000000 8019.785620 8019.785620 8019.785620 8052.670060 8396.929770 9193.743007 9876.652235 10385.775765 10649.110445 10641.942323 10424.494042 10062.131740 9616.675151 9102.429807 8476.419359 7746.459571 6971.062331 6185.210859 5409.060048 4649.499320 3915.787777 3226.731105 2593.332972 2028.694635 1563.570372 1195.573312 883.420112 611.211761 392.142094 234.184643 130.661692 67.847137 32.021981 12.550490 2.338816 -2.849951 -5.338111 -6.329412 -6.446593 -6.038530 -5.329836 -4.481705 -3.611899 -2.800823 -2.095720 -1.516552 -1.063327 -0.723514 -0.478396 -0.307753 -0.192815 -0.117760 -0.070165 -0.040816 -0.023194 -0.012883 -0.006998 -0.003719 -0.001935 -0.000985 -0.000492 -0.000240 -0.000115 -0.000054 -0.000025 -0.000011 -0.000005 -0.000002 -0.000001 -0.000000 -0.000000 -0.000000 -0.000000 -0.000000 -0.000000 -0.000000 -0.000000 -0.000000 -0.000000 -0.000000 -0.000000 -0.000000 -0.000000 -0.000000 -0.000000 -0.000000 -0.000000 -0.000000 -0.000000 -0.000000 -0.000000 -0.000000 -0.000000 -0.000000 -0.000000 -0.000000 -0.000000 -0.000000 -0.000000 -0.000000 -0.000000 -0.000000 -0.000000 -0.000000 -0.000000 0.000000 0.000000 0.000000 0.000000 0.000000 0.000000 8019.785620 8019.785620 8019.785620 8052.670060 8396.929770 9193.743007 9876.652235 10385.775765 10649.110445 10641.942323 10424.494042 10062.131740 9616.675151 9102.429807 8476.419359 7746.459571 6971.062331 6185.210859 5409.060048 4649.499320 3915.787777 3226.731105 2593.332972 2028.694635 1563.570372 1195.573312 883.420112 611.211761 392.142094 234.184643 130.661692 67.847137 32.021981 12.550490 2.338816 -2.849951 -5.338111 -6.329412 -6.446593 -6.038530 -5.329836 -4.481705 -3.611899 -2.800823 -2.095720 -1.516552 -1.063327 -0.723514 -0.478396 -0.307753 -0.192815 -0.117760 -0.070165 -0.040816 -0.023194 -0.012883 -0.006998 -0.003719 -0.001935 -0.000985 -0.000492 -0.000240 -0.000115 -0.000054 -0.000025 -0.000011 -0.000005 -0.000002 -0.000001 -0.000000 -0.000000 -0.000000 -0.000000 -0.000000 -0.000000 -0.000000 -0.000000 -0.000000 -0.000000 -0.000000 -0.000000 -0.000000 -0.000000 -0.000000 -0.000000 -0.000000 -0.000000 -0.000000 -0.000000 -0.000000 -0.000000 -0.000000 -0.000000 -0.000000 -0.000000 -0.000000 -0.000000 -0.000000 -0.000000 -0.000000 -0.000000 -0.000000 -0.000000 -0.000000 -0.000000 0.000000 0.000000 0.000000 0.000000 0.000000 0.000000 8019.785620 8019.785620 8019.785620 8052.670060 8396.929770 9193.743007 9876.652235 10385.775765 10649.110445 10641.942323 10424.494042 10062.131740 9616.675151 9102.429807 8476.419359 7746.459571 6971.062331 6185.210859 5409.060048 4649.499320 3915.787777 3226.731105 2593.332972 2028.694635 1563.570372 1195.573312 883.420112 611.211761 392.142094 234.184643 130.661692 67.847137 32.021981 12.550490 2.338816 -2.849951 -5.338111 -6.329412 -6.446593 -6.038530 -5.329836 -4.481705 -3.611899 -2.800823 -2.095720 -1.516552 -1.063327 -0.723514 -0.478396 -0.307753 -0.192815 -0.117760 -0.070165 -0.040816 -0.023194 -0.012883 -0.006998 -0.003719 -0.001935 -0.000985 -0.000492 -0.000240 -0.000115 -0.000054 -0.000025 -0.000011 -0.000005 -0.000002 -0.000001 -0.000000 -0.000000 -0.000000 -0.000000 -0.000000 -0.000000 -0.000000 -0.000000 -0.000000 -0.000000 -0.000000 -0.000000 -0.000000 -0.000000 -0.000000 -0.000000 -0.000000 -0.000000 -0.000000 -0.000000 -0.000000 -0.000000 -0.000000 -0.000000 -0.000000 -0.000000 -0.000000 -0.000000 -0.000000 -0.000000 -0.000000 -0.000000 -0.000000 -0.000000 -0.000000 -0.000000 0.000000 0.000000 0.000000 0.000000 0.000000 0.000000 12278.378425 12278.378425 12278.378425 12544.499620 14302.410378 21098.152661 26087.531874 27002.216427 28150.286641 24826.358370 23478.275086 23557.553142 24123.316181 24259.442020 23418.753696 23101.164761 22501.480796 22437.767536 20806.284439 20276.895022 19745.157746 19148.808108 18551.385769 17342.966972 16156.125623 15059.617215 13749.596982 12276.824120 11215.530692 10181.687424 9095.136305 8689.395919 7543.802513 7316.810345 7187.174654 6150.653907 3662.873446 4896.290307 4809.314224 -2498.350502 4757.168878 -983.463184 -4684.536159 5707.906880 -4891.769028 -1939.742275 -4491.996285 -1749.687232 1682.716896 -759.986181 -1885.906914 664.630182 481.994120 -1771.108179 -1895.137833 -1547.143220 13854.056496 13854.056496 13854.056496 14025.959653 15235.990950 25290.802931 32537.939497 37655.071956 41420.506178 37069.436891 38346.656055 34231.040060 33807.513652 33141.116355 34221.809017 35517.619781 33977.782472 34373.937194 33266.844694 31976.016553 30859.605368 30951.337754 30404.035565 29650.167574 29442.399325 28766.801085 27866.547316 27315.295278 26666.260929 26086.922597 25504.763107 24480.426186 23677.202927 22902.578395 21788.827043 20849.849988 19996.841322 18822.996174 17588.712416 16316.344795 15164.667323 14093.423675 12853.672972 11612.323326 10663.794382 10481.394796 10042.360210 8699.280381 8328.232011 8587.960646 7331.234657 5114.763487 4501.050697 2071.656799 244.355978 617.320840 16313.184985 16313.184985 16313.184985 16709.602201 19770.561025 31162.608292 48854.603129 44030.807252 37315.692080 47303.925314 40487.439849 45871.067370 38540.484602 40849.514964 37876.760932 40037.377299 38515.957208 38925.921668 35910.245189 36803.588160 35361.078047 35988.230326 35064.499563 34271.343271 33806.914726 32607.430167 32195.460934 31295.984123 29808.772500 29315.418212 28764.660003 27725.037383 27136.153985 26287.376375 25277.368636 24008.939702 22586.054043 21622.804351 20692.396971 19360.313390 17773.591421 16255.211728 15053.342289 14028.328947 12768.063350 11563.726070 11017.499266 10157.844925 9074.176741 7690.892442 7231.054474 4947.434216 6929.391009 2441.368476 -247.307379 4437.846752 18560.132475 18560.132475 18560.132475 18967.231993 24553.785487 38876.783485 41399.370100 58382.427580 49808.868217 45726.219186 49353.904960 48352.467629 45950.893827 43430.922227 45765.537016 42504.415799 43547.691087 39398.040467 42042.091323 39848.026695 40015.429541 38933.057351 38724.780336 37669.566420 38241.114529 37130.032485 36415.475275 35131.883144 33929.618891 33661.907571 32477.089645 31385.573534 30279.310030 28868.602422 27476.447147 26249.652476 25044.407601 23722.163626 22296.187281 20812.237553 19334.861132 17857.037428 16363.363505 15215.855716 14438.286743 13557.040811 12559.795221 11435.794800 10539.537435 8630.965302 7478.898349 5744.247315 5212.164695 1745.423597 2689.322542 2128.591555 20524.834256 20524.834256 20524.834256 21031.915542 26267.799426 37708.772325 40987.128611 44957.465950 46653.022236 54631.072464 49018.876882 51196.589844 48244.337380 47592.441088 47590.267850 49801.664122 45942.897497 47154.157861 45560.375265 45304.785441 43504.238850 42937.308294 40553.385805 40257.614313 37887.747651 37802.724750 36501.837151 35569.747118 34132.077328 33597.935072 32651.574422 31772.095861 30662.960544 29304.497925 27942.766937 26835.612195 25678.594931 24481.361525 23112.971648 21526.917418 19849.490436 18150.189453 16594.559341 15221.016638 14055.202092 13044.284134 12382.669611 10983.808527 9799.712611 8419.014159 7188.221759 5777.001340 4842.461428 3983.622087 2036.91