<VTKFile type="PolyData">
<PolyData>
<Piece NumberOfPoints="8632" NumberOfVerts="8632" NumberOfLines="0" NumberOfStrips="0" NumberOfPolys="0">
<PointData>
<DataArray type="Float64" Name="Pressure" format="ascii">
 14683.957491 14683.957491 14683.957491 14677.581858 14607.390545 14429.891173 14229.624860 13985.060345 13679.122441 13322.080377 12886.727796 12349.210877 11790.341992 11271.376573 10755.779456 10230.344773 9695.434796 9119.383704 8474.905949 7765.725177 7025.831398 6292.552329 5601.015872 4979.950999 4421.804267 3889.792550 3401.062225 3019.578189 2682.601691 2303.479779 1887.980942 1481.298568 1189.886917 1026.552617 885.404797 698.302527 524.879607 409.661120 289.447501 148.246875 66.651829 44.868478 -2.628663 -93.855363 -145.065563 -130.538733 -119.004568 -190.771841 -336.429670 -470.309329 -591.089993 -752.038342 -923.528617 -1021.494205 -1035.129946 -995.744216 -927.843947 -847.815074 -766.120640 -687.908093 -615.110839 -548.182862 -486.948407 -431.006494 -379.918160 -333.288008 -290.791292 -252.172314 -217.228823 -185.791519 -157.704375 -132.808946 -110.934031 -91.890714 -75.472016 -61.455955 -49.610770 -39.701133 -31.494421 -24.766392 -19.305850 -14.918107 -11.427223 -8.677104 -6.531636 -4.874037 -3.605640 -2.644298 -1.922564 -1.385803 -0.990334 -0.701665 -0.492895 -0.343294 -0.237068 -0.162324 -0.110206 -0.074188 -0.049517 -0.032766 -0.021486 -0.013950 -0.008946 -0.005638 -0.003452 -0.002004 -0.001011 -0.000458 -0.000360 -0.000360 -0.000360 14683.957491 14683.957491 14683.957491 14677.581858 14607.390545 14429.891173 14229.624860 13985.060345 13679.122441 13322.080377 12886.727796 12349.210877 11790.341992 11271.376573 10755.779456 10230.344773 9695.434796 9119.383704 8474.905949 7765.725177 7025.831398 6292.552329 5601.015872 4979.950999 4421.804267 3889.792550 3401.062225 3019.578189 2682.601691 2303.479779 1887.980942 1481.298568 1189.886917 1026.552617 885.404797 698.302527 524.879607 409.661120 289.447501 148.246875 66.651829 44.868478 -2.628663 -93.855363 -145.065563 -130.538733 -119.004568 -190.771841 -336.429670 -470.309329 -591.089993 -752.038342 -923.528617 -1021.494205 -1035.129946 -995.744216 -927.843947 -847.815074 -766.120640 -687.908093 -615.110839 -548.182862 -486.948407 -431.006494 -379.918160 -333.288008 -290.791292 -252.172314 -217.228823 -185.791519 -157.704375 -132.808946 -110.934031 -91.890714 -75.472016 -61.455955 -49.610770 -39.701133 -31.494421 -24.766392 -19.305850 -14.918107 -11.427223 -8.677104 -6.531636 -4.874037 -3.605640 -2.644298 -1.922564 -1.385803 -0.990334 -0.701665 -0.492895 -0.343294 -0.237068 -0.162324 -0.110206 -0.074188 -0.049517 -0.032766 -0.021486 -0.013950 -0.008946 -0.005638 -0.003452 -0.002004 -0.001011 -0.000458 -0.000360 -0.000360 -0.000360 14683.957491 14683.957491 14683.957491 14677.581858 14607.390545 14429.891173 14229.624860 13985.060345 13679.122441 13322.080377 12886.727796 12349.210877 11790.341992 11271.376573 10755.779456 10230.344773 9695.434796 9119.383704 8474.905949 7765.725177 7025.831398 6292.552329 5601.015872 4979.950999 4421.804267 3889.792550 3401.062225 3019.578189 2682.601691 2303.479779 1887.980942 1481.298568 1189.886917 1026.552617 885.404797 698.302527 524.879607 409.661120 289.447501 148.246875 66.651829 44.868478 -2.628663 -93.855363 -145.065563 -130.538733 -119.004568 -190.771841 -336.429670 -470.309329 -591.089993 -752.038342 -923.528617 -1021.494205 -1035.129946 -995.744216 -927.843947 -847.815074 -766.120640 -687.908093 -615.110839 -548.182862 -486.948407 -431.006494 -379.918160 -333.288008 -290.791292 -252.172314 -217.228823 -185.791519 -157.704375 -132.808946 -110.934031 -91.890714 -75.472016 -61.455955 -49.610770 -39.701133 -31.494421 -24.766392 -19.305850 -14.918107 -11.427223 -8.677104 -6.531636 -4.874037 -3.605640 -2.644298 -1.922564 -1.385803 -0.990334 -0.701665 -0.492895 -0.343294 -0.237068 -0.162324 -0.110206 -0.074188 -0.049517 -0.032766 -0.021486 -0.013950 -0.008946 -0.005638 -0.003452 -0.002004 -0.001011 -0.000458 -0.000360 -0.000360 -0.000360 14686.741709 14686.741709 14686.741709 14680.630797 14612.925944 14442.390280 14252.193457 14017.165423 13718.551435 13384.951357 12957.479451 12367.571657 11784.619607 11288.548089 10767.070604 10253.452367 9746.099113 9186.765893 8532.570049 7798.169415 7042.868277 6297.447154 5586.789021 4945.348365 4376.286551 3828.698008 3317.066119 2972.218061 2668.099101 2270.880749 1841.462003 1397.401554 1108.720295 993.748012 884.493957 677.971106 491.000061 404.895475 292.766541 121.204008 41.608387 52.808801 12.957662 -111.718287 -170.240355 -130.377969 -91.167510 -160.608430 -348.840511 -476.953088 -575.313174 -730.568770 -949.721344 -1052.052842 -1055.658209 -1007.880463 -934.317758 -850.791177 -767.312532 -688.337328 -615.231279 -548.183714 -486.905992 -430.950731 -379.860178 -333.231486 -290.737113 -252.120468 -217.179147 -185.743961 -157.659033 -132.766035 -110.893821 -91.853471 -75.437956 -61.425214 -49.583396 -39.677080 -31.473564 -24.748539 -19.290760 -14.905511 -11.416835 -8.668638 -6.524815 -4.868604 -3.601361 -2.640964 -1.919994 -1.383844 -0.988855 -0.700561 -0.492079 -0.342697 -0.236635 -0.162014 -0.109985 -0.074033 -0.049409 -0.032691 -0.021435 -0.013914 -0.008921 -0.005616 -0.003430 -0.001983 -0.000999 -0.000452 -0.000355 -0.000355 -0.000355 14726.220342 14726.220342 14726.220342 14723.973894 14698.850722 14658.774863 14471.123437 14353.336755 14078.039010 14151.036958 13866.991164 12464.960648 11729.615351 11741.527233 10993.337805 10561.127616 10482.684376 10110.986389 9196.575821 8139.488926 7367.122904 6579.211239 5629.031528 4585.194866 3861.276268 3157.883416 2003.416283 2436.614204 2601.338296 1826.865649 1509.779301 183.588994 6.137974 650.325148 1085.864429 386.160890 -99.033929 451.396040 533.729680 -386.589583 -358.913956 253.525729 389.573939 -464.508634 -577.720355 -137.801201 371.186071 284.568035 -622.398595 -644.505288 -209.500453 -464.740371 -1350.168609 -1438.040794 -1285.334996 -1144.755654 -1006.708042 -880.687952 -779.040870 -692.495134 -616.374974 -548.167392 -486.472278 -430.389769 -379.279481 -332.666279 -290.195598 -251.602284 -216.682611 -185.268520 -157.205694 -132.336976 -110.491766 -91.481096 -75.097427 -61.117910 -49.309775 -39.436694 -31.265149 -24.570172 -19.140035 -14.779713 -11.313107 -8.584115 -6.456736 -4.814390 -3.558668 -2.607710 -1.894371 -1.364310 -0.974119 -0.689558 -0.483948 -0.336748 -0.232327 -0.158924 -0.107791 -0.072490 -0.048335 -0.031949 -0.020926 -0.013564 -0.008667 -0.005395 -0.003158 -0.001701 -0.000843 -0.000381 -0.000304 -0.000304 -0.000304 14820.042442 14820.042442 14820.042442 14831.599676 15148.713587 15425.262578 15481.589689 14523.753217 14084.115080 15786.456636 16517.747669 10313.203145 11903.142199 15130.350864 9969.922364 12289.639913 11921.855167 12110.613930 9438.052589 7924.469549 8131.389366 7958.423508 6961.114734 4080.061893 2916.292432 2557.738384 -1250.652389 2280.463544 3577.713547 -530.333728 1280.534393 -2245.348616 -2116.513650 435.104263 2161.138070 -100.954135 -1634.377816 823.674730 1332.025686 -1533.435113 -1260.937529 778.266925 1155.001677 -1203.903961 -1352.685398 -148.619704 1092.100367 890.649907 -1135.765662 -943.556636 289.202588 -402.057640 -2113.900786 -1987.995274 -1563.780134 -1330.531837 -1129.292435 -929.905364 -797.349569 -699.132163 -618.429060 -548.450991 -486.101779 -429.802765 -378.641032 -332.033456 -289.584511 -251.015279 -216.118958 -184.728167 -156.690105 -131.848833 -110.034308 -91.057454 -74.710119 -60.768520 -48.998826 -39.163657 -31.028563 -24.367822 -18.969155 -14.637191 -11.195671 -8.488492 -6.379775 -4.753150 -3.510479 -2.570207 -1.865497 -1.342316 -0.957541 -0.677191 -0.474817 -0.330074 -0.227498 -0.155464 -0.105337 -0.070766 -0.047135 -0.031121 -0.020358 -0.013170 -0.008372 -0.005100 -0.002622 -0.001203 -0.000608 -0.000295 -0.000240 -0.000240 -0.000240 -0.000982 -0.000493 -0.000262 -0.000232 -0.000232 -0.000232 -0.000600 -0.000350 -0.000204 -0.000184 -0.000184 -0.000184 -0.000265 -0.000191 -0.000132 -0.000123 -0.000123 -0.000123 -0.000128 -0.000103 -0.000082 -0.000079 -0.000079 -0.000079 -0.000065 -0.000057 -0.000050 -0.000049 -0.000049 -0.000049 -0.000035 -0.000032 -0.000030 -0.000029 -0.000029 -0.000029 -0.000019 -0.000018 -0.000018 -0.000018 -0.000018 -0.000018 -0.000010 -0.000010 -0.000010 -0.000010 -0.000010 -0.000010 -0.000006 -0.000006 -0.000006 -0.000006 -0.000006 -0.000006 -0.000003 -0.000003 -0.000003 -0.000003 -0.000003 -0.000003 -0.000002 -0.000002 -0.000002 -0.000002 -0.000002 -0.000002 -0.000001 -0.000001 -0.000001 -0.000001 -0.000001 -0.000001 -0.000001 -0.000001 -0.000001 -0.000001 -0.000001 -0.000001 -0.000000 -0.000000 -0.000000 -0.000000 -0.000000 -0.000000 -0.000000 -0.000000 -0.000000 -0.000000 -0.000000 -0.000000 -0.000000 -0.000000 -0.000000 -0.000000 -0.000000 -0.000000 -0.000000 -0.000000 -0.000000 -0.000000 -0.000000 -0.000000 -0.000000 -0.000000 -0.000000 -0.000000 -0.000000 -0.000000 -0.000000 -0.000000 -0.000000 -0.000000 -0.000000 -0.000000 -0.000000 -0.000000 -0.000000 -0.000000 -0.000000 -0.000000 -0.000000 -0.000000 -0.000000 -0.000000 -0.000000 -0.000000 -0.000000 -0.000000 -0.000000 -0.000000 -0.000000 -0.000000 -0.000000 -0.000000 -0.000000 -0.000000 -0.000000 -0.000000 -0.000000 -0.000000 -0.000000 -0.000000 -0.000000 -0.000000 -0.000000 -0.000000 -0.000000 -0.000000 -0.000000 -0.000000 -0.000000 -0.000000 -0.000000 -0.000000 -0.000000 -0.000000 -0.000000 -0.000000 -0.000000 -0.000000 -0.000000 -0.000000 -0.000000 -0.000000 -0.000000 -0.000000 -0.000000 -0.000000 -0.000000 -0.000000 -0.000000 -0.000000 -0.000000 -0.000000 -0.000000 -0.000000 -0.000000 -0.000000 -0.000000 -0.000000 -0.000000 -0.000000 -0.000000 -0.000000 -0.000000 -0.000000 -0.000000 -0.000000 -0.000000 -0.000000 -0.000000 -0.000000 -0.000000 -0.000000 -0.000000 -0.000000 -0.000000 -0.000000 -0.000000 -0.000000 -0.000000 -0.000000 -0.000000 -0.000000 -0.000000 -0.000000 -0.000000 -0.000000 -0.000000 -0.000000 -0.000000 -0.000000 -0.000000 -0.000000 -0.000000 -0.000000 -0.000000 -0.000000 -0.000000 -0.000000 -0.000000 -0.000000 -0.000000 -0.000000 -0.000000 -0.000000 -0.000000 -0.000000 -0.000000 -0.000000 -0.000000 -0.000000 -0.000000 -0.000000 -0.000000 -0.000000 -0.000000 -0.000000 -0.000000 -0.000000 -0.000000 -0.000000 -0.000000 -0.000000 -0.000000 -0.000000 -0.000000 -0.000000 -0.000000 -0.000000 -0.000000 -0.000000 -0.000000 -0.000000 -0.000000 -0.000000 -0.000000 -0.000000 -0.000000 -0.000000 -0.000000 -0.000000 -0.000000 -0.000000 -0.000000 -0.000000 -0.000000 -0.000000 -0.000000 -0.000000 -0.000000 -0.000000 -0.000000 -0.000000 -0.000000 -0.000000 -0.000000 -0.000000 -0.000000 -0.000000 -0.000000 -0.000000 -0.000000 -0.000000 -0.000000 -0.000000 -0.000000 -0.000000 -0.000000 -0.000000 -0.000000 -0.000000 -0.000000 -0.000000 -0.000000 -0.000000 -0.000000 0.000000 0.000000 0.000000 -0.000000 -0.000000 -0.000000 0.000000 0.000000 0.000000 -0.000000 -0.000000 -0.000000 0.000000 0.000000 0.000000 -0.000000 -0.000000 -0.000000 0.000000 0.000000 0.000000 -0.000000 -0.000000 -0.000000 0.000000 0.000000 0.000000 -0.000000 -0.000000 -0.000000 0.000000 0.000000 0.000000 -0.000000 -0.000000 -0.000000 0.000000 0.000000 0.000000 -0.000000 -0.000000 -0.000000 0.000000 0.000000 0.000000 -0.000000 -0.000000 -0.000000 0.000000 0.000000 0.000000 -0.000000 -0.000000 -0.000000 0.000000 0.000000 0.000000 -0.000000 -0.000000 -0.000000 0.000000 0.000000 0.000000 -0.000000 -0.000000 -0.000000 0.000000 0.000000 0.000000 -0.000000 -0.000000 -0.000000 0.000000 0.000000 0.000000 -0.000000 -0.000000 -0.000000 0.000000 0.000000 0.000000 -0.000000 -0.000000 -0.000000 0.000000 0.000000 0.000000 -0.000000 -0.000000 -0.000000 0.000000 0.000000 0.000000 -0.000000 -0.000000 -0.000000 0.000000 0.000000 0.000000 -0.000000 -0.000000 -0.000000 0.000000 0.000000 0.000000 -0.000000 -0.000000 -0.000000 0.000000 0.000000 0.000000 -0.000000 -0.000000 -0.000000 0.000000 0.000000 0.000000 -0.000000 -0.000000 -0.000000 0.000000 0.000000 0.000000 -0.000000 -0.000000 -0.000000 0.000000 0.000000 0.000000 -0.000000 -0.000000 -0.000000 0.000000 0.000000 0.000000 -0.000000 -0.000000 -0.000000 0.000000 0.000000 0.000000 -0.000000 -0.000000 -0.000000 0.000000 0.000000 0.000000 -0.000000 -0.000000 -0.000000 0.000000 0.000000 0.000000 -0.000000 -0.000000 -0.000000 0.000000 0.000000 0.000000 -0.000000 -0.000000 -0.000000 0.000000 0.000000 0.000000 -0.000000 -0.000000 -0.000000 0.000000 0.000000 0.000000 -0.000000 -0.000000 -0.000000 0.000000 0.000000 0.000000 -0.000000 -0.000000 -0.000000 0.000000 0.000000 0.000000 -0.000000 -0.000000 -0.000000 0.000000 0.000000 0.000000 -0.000000 -0.000000 -0.000000 0.000000 0.000000 0.000000 -0.000000 -0.000000 -0.000000 0.000000 0.000000 0.000000 -0.000000 -0.000000 -0.000000 0.000000 0.000000 0.000000 -0.000000 -0.000000 -0.000000 0.000000 0.000000 0.000000 -0.000000 -0.000000 -0.000000 0.000000 0.000000 0.000000 -0.000000 -0.000000 -0.000000 0.000000 0.000000 0.000000 -0.000000 -0.000000 -0.000000 0.000000 0.000000 0.000000 -0.000000 -0.000000 -0.000000 0.000000 0.000000 0.000000 -0.000000 -0.000000 -0.000000 0.000000 0.000000 0.000000 -0.000000 -0.000000 -0.000000 0.000000 0.000000 0.000000 -0.000000 -0.000000 -0.000000 0.000000 0.000000 0.000000 -0.000000 -0.000000 -0.000000 0.000000 0.000000 0.000000 -0.000000 -0.000000 -0.000000 0.000000 0.000000 0.000000 -0.000000 -0.000000 -0.000000 0.000000 0.000000 0.000000 -0.000000 -0.000000 -0.000000 0.000000 0.000000 0.000000 -0.000000 -0.000000 -0.000000 0.000000 0.000000 0.000000 -0.000000 -0.000000 -0.000000 0.000000 0.000000 0.000000 -0.000000 -0.000000 -0.000000 0.000000 0.000000 0.000000 -0.000000 -0.000000 -0.000000 0.000000 0.000000 0.000000 -0.000000 -0.000000 -0.000000 0.000000 0.000000 0.000000 -0.000000 -0.000000 -0.000000 0.000000 0.000000 0.000000 -0.000000 -0.000000 -0.000000 0.000000 0.000000 0.000000 -0.000000 -0.000000 -0.000000 0.000000 0.000000 0.000000 -0.000000 -0.000000 -0.000000 0.000000 0.000000 0.000000 -0.000000 -0.000000 -0.000000 0.000000 0.000000 0.000000 -0.000000 -0.000000 -0.000000 0.000000 0.000000 0.000000 -0.000000 -0.000000 -0.000000 0.000000 0.000000 0.000000 -0.000000 -0.000000 -0.000000 0.000000 0.000000 0.000000 -0.000000 -0.000000 -0.000000 0.000000 0.000000 0.000000 -0.000000 -0.000000 -0.000000 0.000000 0.000000 0.000000 -0.000000 -0.000000 -0.000000 0.000000 0.000000 0.000000 -0.000000 -0.000000 -0.000000 0.000000 0.000000 0.000000 -0.000000 -0.000000 -0.000000 0.000000 0.000000 0.000000 -0.000000 -0.000000 -0.000000 0.000000 0.000000 0.000000 -0.000000 -0.000000 -0.000000 0.000000 0.000000 0.000000 -0.000000 -0.000000 -0.000000 0.000000 0.000000 0.000000 -0.000000 -0.000000 -0.000000 0.000000 0.000000 0.000000 -0.000000 -0.000000 -0.000000 0.000000 0.000000 0.000000 -0.000000 -0.000000 -0.000000 0.000000 0.000000 0.000000 -0.000000 -0.000000 -0.000000 0.000000 0.000000 0.000000 -0.000000 -0.000000 -0.000000 0.000000 0.000000 0.000000 -0.000000 -0.000000 -0.000000 0.000000 0.000000 0.000000 -0.000000 -0.000000 -0.000000 0.000000 0.000000 0.000000 -0.000000 -0.000000 -0.000000 0.000000 0.000000 0.000000 -0.000000 -0.000000 -0.000000 0.000000 0.000000 0.000000 -0.000000 -0.000000 -0.000000 0.000000 0.000000 0.000000 -0.000000 -0.000000 -0.000000 0.000000 0.000000 0.000000 -0.000000 -0.000000 -0.000000 0.000000 0.000000 0.000000 -0.000000 -0.000000 -0.000000 0.000000 0.000000 0.000000 -0.000000 -0.000000 -0.000000 0.000000 0.000000 0.000000 -0.000000 -0.000000 -0.000000 0.000000 0.000000 0.000000 -0.000000 -0.000000 -0.000000 0.000000 0.000000 0.000000 -0.000000 -0.000000 -0.000000 0.000000 0.000000 0.000000 -0.000000 -0.000000 -0.000000 0.000000 0.000000 0.000000 -0.000000 -0.000000 -0.000000 0.000000 0.000000 0.000000 -0.000000 -0.000000 -0.000000 0.000000 0.000000 0.000000 -0.000000 -0.000000 -0.000000 0.000000 0.000000 0.000000 -0.000000 -0.000000 -0.000000 0.000000 0.000000 0.000000 -0.000000 -0.000000 -0.000000 0.000000 0.000000 0.000000 -0.000000 -0.000000 -0.000000 0.000000 0.000000 0.000000 -0.000000 -0.000000 -0.000000 0.000000 0.000000 0.000000 -0.000000 -0.000000 -0.000000 0.000000 0.000000 0.000000 -0.000000 -0.000000 -0.000000 0.000000 0.000000 0.000000 -0.000000 -0.000000 -0.000000 0.000000 0.000000 0.000000 -0.000000 -0.000000 -0.000000 0.000000 0.000000 0.000000 -0.000000 -0.000000 -0.000000 0.000000 0.000000 0.000000 -0.000000 -0.000000 -0.000000 0.000000 0.000000 0.000000 -0.000000 -0.000000 -0.000000 0.000000 0.000000 0.000000 -0.000000 -0.000000 -0.000000 0.000000 0.000000 0.000000 -0.000000 -0.000000 -0.000000 0.000000 0.000000 0.000000 -0.000000 -0.000000 -0.000000 0.000000 0.000000 0.000000 -0.000000 -0.000000 -0.000000 0.000000 0.000000 0.000000 -0.000000 -0.000000 -0.000000 0.000000 0.000000 0.000000 -0.000000 -0.000000 -0.000000 0.000000 0.000000 0.000000 -0.000000 -0.000000 -0.000000 0.000000 0.000000 0.000000 -0.000000 -0.000000 -0.000000 0.000000 0.000000 0.000000 -0.000000 -0.000000 -0.000000 0.000000 0.000000 0.000000 -0.000000 -0.000000 -0.000000 0.000000 0.000000 0.000000 -0.000000 -0.000000 -0.000000 0.000000 0.000000 0.000000 -0.000000 -0.000000 -0.000000 -0.000000 -0.000000 -0.000000 -0.000000 -0.000000 -0.000000 -0.000000 -0.000000 -0.000000 -0.000000 -0.000000 -0.000000 -0.000000 -0.000000 -0.000000 -0.000000 -0.000000 -0.000000 -0.000000 -0.000000 -0.000000 -0.000000 -0.000000 -0.000000 -0.000000 -0.000000 -0.000000 0.000000 -0.000000 -0.000000 -0.000000 -0.000000 -0.000000 0.000000 -0.000000 -0.000000 -0.000000 -0.000000 -0.000000 0.000000 -0.000000 -0.000000 -0.000000 -0.000000 -0.000000 0.000000 -0.000000 -0.000000 -0.000000 -0.000000 -0.000000 0.000000 -0.000000 -0.000000 -0.000000 -0.000000 -0.000000 0.000000 -0.000000 -0.000000 -0.000000 -0.000000 -0.000000 0.000000 -0.000000 -0.000000 -0.000000 -0.000000 -0.000000 0.000000 -0.000000 -0.000000 -0.000000 -0.000000 -0.000000 0.000000 -0.000000 -0.000000 -0.000000 -0.000000 -0.000000 0.000000 -0.000000 -0.000000 -0.000000 -0.000000 -0.000000 0.000000 -0.000000 -0.000000 -0.000000 -0.000000 -0.000000 0.000000 -0.000000 -0.000000 -0.000000 -0.000000 -0.000000 0.000000 -0.000000 -0.000000 -0.000000 -0.000000 -0.000000 0.000000 -0.000000 -0.000000 -0.000000 -0.000000 -0.000000 0.000000 -0.000000 -0.000000 -0.000000 -0.000000 -0.000000 0.000000 -0.000000 -0.000000 -0.000000 -0.000000 -0.000000 0.000000 -0.000000 -0.000000 -0.000000 -0.000000 -0.000000 0.000000 -0.000000 -0.000000 -0.000000 -0.000000 -0.000000 0.000000 -0.000000 -0.000000 -0.000000 -0.000000 -0.000000 0.000000 -0.000000 -0.000000 -0.000000 -0.000000 -0.000000 0.000000 -0.000000 -0.000000 -0.000000 -0.000000 -0.000000 0.000000 -0.000000 -0.000000 -0.000000 -0.000000 -0.000000 0.000000 -0.000000 -0.000000 -0.000000 -0.000000 -0.000000 0.000000 -0.000000 -0.000000 -0.000000 -0.000000 -0.000000 0.000000 -0.000000 -0.000000 -0.000000 -0.000000 -0.000000 0.000000 -0.000000 -0.000000 -0.000000 -0.000000 -0.000000 0.000000 -0.000000 -0.000000 -0.000000 -0.000000 -0.000000 0.000000 -0.000000 -0.000000 -0.000000 -0.000000 -0.000000 0.000000 -0.000000 -0.000000 -0.000000 -0.000000 -0.000000 0.000000 -0.000000 -0.000000 -0.000000 -0.000000 -0.000000 0.000000 -0.000000 -0.000000 -0.000000 -0.000000 -0.000000 0.000000 -0.000000 -0.000000 -0.000000 -0.000000 -0.000000 0.000000 -0.000000 -0.000000 -0.000000 -0.000000 -0.000000 0.000000 -0.000000 -0.000000 -0.000000 -0.000000 -0.000000 -0.000000 -0.000000 0.000000 0.000000 0.000000 0.000000 12142.418322 12142.418322 12142.418322 12090.874179 11487.604671 10361.602860 9708.340960 10218.772055 10223.843432 10000.878045 10689.221367 9698.683319 7908.665523 7356.299601 7749.477595 6067.185843 4957.055680 4867.261395 4348.770219 3717.659952 2545.201685 1766.688702 1717.756639 1042.210311 -40.219037 218.224514 895.597144 1145.654500 1124.819388 1007.607140 862.755434 720.592495 592.925189 482.931130 390.115657 312.690152 248.602219 195.918259 152.926956 118.138582 90.255480 68.142468 50.805240 37.376424 27.106289 19.355133 13.585361 9.352455 6.294834 4.123091 2.609197 1.576236 0.889021 0.445843 0.171389 0.010828 -0.075034 -0.113651 -0.123812 -0.118032 -0.104375 -0.087812 -0.071231 -0.056150 -0.043231 -0.032619 -0.024178 -0.017636 -0.012676 -0.008987 -0.006290 -0.004348 -0.002970 -0.002006 -0.001340 -0.000885 -0.000578 -0.000374 -0.000239 -0.000152 -0.000095 -0.000059 -0.000036 -0.000022 -0.000013 -0.000008 -0.000005 -0.000003 -0.000002 -0.000001 -0.000001 -0.000000 -0.000000 -0.000000 -0.000000 -0.000000 -0.000000 -0.000000 -0.000000 -0.000000 -0.000000 -0.000000 -0.000000 -0.000000 -0.000000 -0.000000 -0.000000 0.000000 -0.000000 -0.000000 -0.000000 12040.583533 12040.583533 12040.583533 12007.001806 11659.701144 10695.235590 9697.686760 9643.010747 10048.228238 9989.319979 9708.567885 8841.266166 7914.768852 7236.900720 7289.298992 6500.556003 5602.584120 5482.941778 4933.284496 4128.976387 3244.199635 2556.306424 2317.764810 1902.395538 1491.545494 1336.164027 1326.411958 1287.647035 1176.110828 1026.632421 870.736063 724.955289 596.065247 485.532808 392.355231 314.621556 250.258993 197.331864 154.126711 119.150344 91.101717 68.843117 51.378575 37.839577 27.475397 19.645225 13.810156 9.524182 6.424127 4.218985 2.679208 1.626491 0.924432 0.470277 0.187842 0.021587 -0.068257 -0.109592 -0.121559 -0.116938 -0.103992 -0.087839 -0.071471 -0.056480 -0.043577 -0.032942 -0.024459 -0.017869 -0.012863 -0.009133 -0.006400 -0.004430 -0.003030 -0.002049 -0.001370 -0.000906 -0.000593 -0.000384 -0.000246 -0.000156 -0.000098 -0.000061 -0.000038 -0.000023 -0.000014 -0.000008 -0.000005 -0.000003 -0.000002 -0.000001 -0.000001 -0.000000 -0.000000 -0.000000 -0.000000 -0.000000 -0.000000 -0.000000 -0.000000 -0.000000 -0.000000 -0.000000 -0.000000 -0.000000 -0.000000 -0.000000 -0.000000 -0.000000 -0.000000 -0.000000 -0.000000 12006.399900 12006.399900 12006.399900 11986.781843 11773.772726 11239.456488 10738.844995 10379.117111 10198.284719 9998.624788 9713.582907 9281.678709 8745.517065 8199.811064 7662.043149 7054.199252 6432.140688 5858.969088 5268.726201 4633.353777 3990.434520 3403.735428 2906.111145 2470.363297 2099.138944 1814.774290 1596.820941 1406.248855 1222.568377 1044.793871 878.813535 729.668247 599.601349 488.509639 394.928744 316.842344 252.163434 198.956087 155.504773 120.312311 92.073661 69.648081 52.037590 38.372288 27.900262 19.979420 14.069363 9.722386 6.573505 4.329894 2.760274 1.684757 0.965547 0.498694 0.207017 0.034156 -0.060312 -0.104811 -0.118885 -0.115621 -0.103510 -0.087842 -0.071728 -0.056847 -0.043968 -0.033309 -0.024780 -0.018137 -0.013078 -0.009300 -0.006528 -0.004525 -0.003100 -0.002099 -0.001406 -0.000931 -0.000610 -0.000396 -0.000254 -0.000161 -0.000102 -0.000063 -0.000039 -0.000024 -0.000014 -0.000009 -0.000005 -0.000003 -0.000002 -0.000001 -0.000001 -0.000000 -0.000000 -0.000000 -0.000000 -0.000000 -0.000000 -0.000000 -0.000000 -0.000000 -0.000000 -0.000000 -0.000000 -0.000000 -0.000000 -0.000000 -0.000000 0.000000 0.000000 0.000000 0.000000 12002.418229 12002.418229 12002.418229 11983.991685 11786.301829 11315.342387 10868.523348 10514.381391 10274.529305 10051.500442 9759.146559 9356.401055 8860.333297 8318.834703 7752.220700 7145.870836 6529.435071 5932.214507 5328.560673 4703.968334 4081.055752 3500.566875 2989.448173 2546.572696 2173.904086 1874.485736 1632.801980 1423.461112 1229.702794 1047.677479 880.148660 730.481658 600.228042 489.042624 395.390882 317.241378 252.505606 199.247855 155.752280 120.520991 92.248222 69.792676 52.156001 38.468040 27.976663 20.039545 14.116022 9.758084 6.600424 4.349894 2.774902 1.695279 0.972977 0.503834 0.210490 0.036436 -0.058868 -0.103940 -0.118395 -0.115378 -0.103419 -0.087840 -0.071772 -0.056912 -0.044038 -0.033375 -0.024838 -0.018185 -0.013116 -0.009330 -0.006551 -0.004542 -0.003113 -0.002108 -0.001412 -0.000936 -0.000613 -0.000398 -0.000256 -0.000162 -0.000102 -0.000064 -0.000039 -0.000024 -0.000015 -0.000009 -0.000005 -0.000003 -0.000002 -0.000001 -0.000001 -0.000000 -0.000000 -0.000000 -0.000000 -0.000000 -0.000000 -0.000000 -0.000000 -0.000000 -0.000000 -0.000000 -0.000000 -0.000000 -0.000000 -0.000000 0.000000 0.000000 0.000000 0.000000 0.000000 12002.418229 12002.418229 12002.418229 11983.991685 11786.301829 11315.342387 10868.523348 10514.381391 10274.529305 10051.500442 9759.146559 9356.401055 8860.333297 8318.834703 7752.220700 7145.870836 6529.435071 5932.214507 5328.560673 4703.968334 4081.055752 3500.566875 2989.448173 2546.572696 2173.904086 1874.485736 1632.801980 1423.461112 1229.702794 1047.677479 880.148660 730.481658 600.228042 489.042624 395.390882 317.241378 252.505606 199.247855 155.752280 120.520991 92.248222 69.792676 52.156001 38.468040 27.976663 20.039545 14.116022 9.758084 6.600424 4.349894 2.774902 1.695279 0.972977 0.503834 0.210490 0.036436 -0.058868 -0.103940 -0.118395 -0.115378 -0.103419 -0.087840 -0.071772 -0.056912 -0.044038 -0.033375 -0.024838 -0.018185 -0.013116 -0.009330 -0.006551 -0.004542 -0.003113 -0.002108 -0.001412 -0.000936 -0.000613 -0.000398 -0.000256 -0.000162 -0.000102 -0.000064 -0.000039 -0.000024 -0.000015 -0.000009 -0.000005 -0.000003 -0.000002 -0.000001 -0.000001 -0.000000 -0.000000 -0.000000 -0.000000 -0.000000 -0.000000 -0.000000 -0.000000 -0.000000 -0.000000 -0.000000 -0.000000 -0.000000 -0.000000 -0.000000 0.000000 0.000000 0.000000 0.000000 0.000000 12002.418229 12002.418229 12002.418229 11983.991685 11786.301829 11315.342387 10868.523348 10514.381391 10274.529305 10051.500442 9759.146559 9356.401055 8860.333297 8318.834703 7752.220700 7145.870836 6529.435071 5932.214507 5328.560673 4703.968334 4081.055752 3500.566875 2989.448173 2546.572696 2173.904086 1874.485736 1632.801980 1423.461112 1229.702794 1047.677479 880.148660 730.481658 600.228042 489.042624 395.390882 317.241378 252.505606 199.247855 155.752280 120.520991 92.248222 69.792676 52.156001 38.468040 27.976663 20.039545 14.116022 9.758084 6.600424 4.349894 2.774902 1.695279 0.972977 0.503834 0.210490 0.036436 -0.058868 -0.103940 -0.118395 -0.115378 -0.103419 -0.087840 -0.071772 -0.056912 -0.044038 -0.033375 -0.024838 -0.018185 -0.013116 -0.009330 -0.006551 -0.004542 -0.003113 -0.002108 -0.001412 -0.000936 -0.000613 -0.000398 -0.000256 -0.000162 -0.000102 -0.000064 -0.000039 -0.000024 -0.000015 -0.000009 -0.000005 -0.000003 -0.000002 -0.000001 -0.000001 -0.000000 -0.000000 -0.000000 -0.000000 -0.000000 -0.000000 -0.000000 -0.000000 -0.000000 -0.000000 -0.000000 -0.000000 -0.000000 -0.000000 -0.000000 0.000000 0.000000 0.000000 0.000000 0.000000 14845.475300 14845.475300 14845.475300 14862.776352 15408.823599 15958.513921 16541.572234 15204.104008 14102.242662 16271.927668 17429.832844 9922.855268 11955.900140 16217.322910 9722.907062 12941.596559 12348.546004 12480.606744 9081.980494 7343.053926 8196.563920 8670.790117 7360.121338 3675.522802 2163.015623 2069.216665 -1832.358745 2645.661108 4153.901122 -1649.669627 970.895637 -2628.287621 -2432.712652 462.099876 2412.958887 -146.902857 -1916.585696 893.301424 1464.113800 -1696.304156 -1393.587876 849.462281 1238.356165 -1300.847660 -1445.558027 -151.216785 1148.761125 931.235968 -1179.714968 -972.149629 290.620105 -469.369922 -2204.993212 -2033.652171 -1584.779086 -1346.922722 15109.696448 15109.696448 15109.696448 15286.063573 17911.265293 19031.692334 19073.120607 15823.415749 20042.302856 20026.992779 14348.826628 20118.329195 18209.323494 14605.903699 19892.171183 16076.678062 14840.068423 17570.936264 17101.568742 9712.598303 15267.286367 16500.712251 19213.925627 7635.500078 23383.509884 24059.916713 19772.010026 18820.896593 19333.037063 18735.414500 9523.730764 18463.904243 19459.918732 23021.251270 22104.327355 18554.043944 18612.906873 21526.722072 24414.285631 21472.915338 21484.092518 15411.808067 20185.899987 16704.097408 17300.010590 18999.432696 13963.388291 16988.244371 19459.125612 16923.008874 19351.539517 11822.718861 14028.866663 -354.367979 106.577790 -268.862283 15581.424020 15581.424020 15581.424020 15861.494428 20818.952793 18889.290209 18249.598062 19996.261082 16254.964007 19737.454827 20879.893755 19650.362528 15471.242307 17750.767833 16742.063470 14845.418330 17737.456545 18752.086202 15335.843987 18852.086026 18095.400683 16067.443870 16391.473151 16533.894208 17669.321100 19123.643760 17939.289119 19503.857250 18080.802221 16710.191709 18570.211564 18975.444304 14599.983183 18505.992572 16930.743237 18024.251143 15725.947306 14181.014034 13952.319365 11923.926849 12188.883150 11438.394691 13337.215000 15106.144698 11612.824378 15482.950059 15710.168392 15355.732498 13419.810199 12000.198107 9331.148835 9304.527671 1688.281769 2604.146162 81.369966 145.491367 16021.590818 16021.590818 16021.590818 16130.746781 19785.937660 19102.931958 21015.248177 23000.757284 19737.413480 19779.036386 19205.318529 19107.080718 16942.730984 19761.665181 21953.158427 17271.648269 16755.534539 19440.953227 17434.870071 17872.685658 16552.205938 19463.051436 18722.097246 17863.444380 18170.666367 19666.992924 18315.885236 21816.631341 15841.255546 15533.359841 14773.639785 16401.587014 16622.175679 15498.426799 14432.109064 12828.483946 10461.289736 14936.494939 17729.847252 11798.118797 13500.193778 13157.831645 9802.011119 12271.436083 14269.253556 9584.144295 12689.865223 10999.131145 7403.522300 9394.933991 5451.573034 12387.105656 -1433.093352 3185.677781 920.215840 -2442.432475 16511.358882 16511.358882 16511.358882 16701.609741 18667.570076 19325.169858 21446.306230 20983.499348 14144.793431 19785.446732 18063.983838 20088.338486 19199.302489 19970.590486 21099.548259 21290.772728 20859.445745 19151.538155 18381.429727 21815.530839 17436.483147 19411.347117 15623.352315 19948.080064 17175.712028 19128.452676 18247.869219 14668.037412 13066.081115 16263.934548 12819.911658 13947.002934 13525.999193 14659.367387 12160.223810 13231.155923 12061.161997 13496.773555 11683.498185 13114.263436 13833.341692 6726.293180 11156.559647 10861.293096 10981.798620 5192.0