<VTKFile type="PolyData">
<PolyData>
<Piece NumberOfPoints="8632" NumberOfVerts="8632" NumberOfLines="0" NumberOfStrips="0" NumberOfPolys="0">
<PointData>
<DataArray type="Float64" Name="Pressure" format="ascii">
 12503.901191 12503.901191 12503.901191 12480.806299 12227.882640 11613.468891 11020.931178 10463.079394 9933.585807 9411.819314 8860.878359 8239.673751 7537.395463 6773.525401 5971.412905 5150.774821 4345.825585 3610.038846 2985.371959 2464.375160 1994.934516 1528.823675 1086.823350 755.426214 573.318512 506.026451 493.713916 474.243008 400.141350 290.957282 229.633356 226.863874 204.605495 122.248534 49.118325 35.417513 23.250047 -40.555788 -96.963655 -87.526110 -60.266606 -92.064710 -168.707271 -202.603690 -181.027745 -170.519183 -245.151499 -399.153867 -543.948536 -668.719228 -832.580371 -1022.232694 -1151.982373 -1196.734686 -1182.056396 -1133.492691 -1066.563404 -990.935450 -913.107441 -836.664341 -763.281803 -693.710299 -628.262623 -567.040336 -510.036219 -457.181789 -408.370365 -363.469101 -322.325986 -284.774502 -250.637199 -219.728710 -191.858434 -166.832946 -144.458156 -124.541214 -106.892165 -91.325379 -77.660773 -65.724849 -55.351571 -46.383098 -38.670389 -32.073666 -26.462763 -21.717336 -17.726950 -14.391027 -11.618683 -9.328438 -7.447830 -5.912930 -4.667801 -3.663889 -2.859389 -2.218597 -1.711257 -1.311927 -0.999373 -0.755999 -0.567325 -0.421513 -0.308976 -0.222080 -0.154974 -0.103309 -0.062874 -0.038354 -0.033842 -0.033842 -0.033842 12503.901191 12503.901191 12503.901191 12480.806299 12227.882640 11613.468891 11020.931178 10463.079394 9933.585807 9411.819314 8860.878359 8239.673751 7537.395463 6773.525401 5971.412905 5150.774821 4345.825585 3610.038846 2985.371959 2464.375160 1994.934516 1528.823675 1086.823350 755.426214 573.318512 506.026451 493.713916 474.243008 400.141350 290.957282 229.633356 226.863874 204.605495 122.248534 49.118325 35.417513 23.250047 -40.555788 -96.963655 -87.526110 -60.266606 -92.064710 -168.707271 -202.603690 -181.027745 -170.519183 -245.151499 -399.153867 -543.948536 -668.719228 -832.580371 -1022.232694 -1151.982373 -1196.734686 -1182.056396 -1133.492691 -1066.563404 -990.935450 -913.107441 -836.664341 -763.281803 -693.710299 -628.262623 -567.040336 -510.036219 -457.181789 -408.370365 -363.469101 -322.325986 -284.774502 -250.637199 -219.728710 -191.858434 -166.832946 -144.458156 -124.541214 -106.892165 -91.325379 -77.660773 -65.724849 -55.351571 -46.383098 -38.670389 -32.073666 -26.462763 -21.717336 -17.726950 -14.391027 -11.618683 -9.328438 -7.447830 -5.912930 -4.667801 -3.663889 -2.859389 -2.218597 -1.711257 -1.311927 -0.999373 -0.755999 -0.567325 -0.421513 -0.308976 -0.222080 -0.154974 -0.103309 -0.062874 -0.038354 -0.033842 -0.033842 -0.033842 12503.901191 12503.901191 12503.901191 12480.806299 12227.882640 11613.468891 11020.931178 10463.079394 9933.585807 9411.819314 8860.878359 8239.673751 7537.395463 6773.525401 5971.412905 5150.774821 4345.825585 3610.038846 2985.371959 2464.375160 1994.934516 1528.823675 1086.823350 755.426214 573.318512 506.026451 493.713916 474.243008 400.141350 290.957282 229.633356 226.863874 204.605495 122.248534 49.118325 35.417513 23.250047 -40.555788 -96.963655 -87.526110 -60.266606 -92.064710 -168.707271 -202.603690 -181.027745 -170.519183 -245.151499 -399.153867 -543.948536 -668.719228 -832.580371 -1022.232694 -1151.982373 -1196.734686 -1182.056396 -1133.492691 -1066.563404 -990.935450 -913.107441 -836.664341 -763.281803 -693.710299 -628.262623 -567.040336 -510.036219 -457.181789 -408.370365 -363.469101 -322.325986 -284.774502 -250.637199 -219.728710 -191.858434 -166.832946 -144.458156 -124.541214 -106.892165 -91.325379 -77.660773 -65.724849 -55.351571 -46.383098 -38.670389 -32.073666 -26.462763 -21.717336 -17.726950 -14.391027 -11.618683 -9.328438 -7.447830 -5.912930 -4.667801 -3.663889 -2.859389 -2.218597 -1.711257 -1.311927 -0.999373 -0.755999 -0.567325 -0.421513 -0.308976 -0.222080 -0.154974 -0.103309 -0.062874 -0.038354 -0.033842 -0.033842 -0.033842 12481.036605 12481.036605 12481.036605 12457.153857 12189.046085 11541.336686 10934.040029 10378.289125 9859.666964 9356.853487 8825.274674 8202.442406 7482.928397 6703.803865 5898.207949 5077.560128 4269.409898 3533.711382 2925.111371 2431.661564 1984.674324 1514.407156 1041.767883 700.798748 536.240065 492.043974 501.314683 497.561536 414.808237 272.350464 206.767238 233.043607 225.368019 114.544335 22.828242 33.239158 41.476050 -45.299024 -122.891000 -94.449968 -39.393258 -74.723277 -187.551494 -224.175631 -179.562460 -144.907824 -216.764338 -416.900808 -555.527287 -662.034267 -833.714963 -1063.411285 -1185.416898 -1218.196727 -1194.335953 -1140.760118 -1070.549345 -992.805531 -913.864091 -836.937096 -763.354348 -693.701912 -628.222187 -566.987837 -509.979907 -457.125151 -408.314941 -363.415621 -322.274832 -284.725891 -250.591263 -219.685524 -191.818033 -166.795334 -144.423308 -124.509083 -106.862683 -91.298464 -77.636328 -65.702764 -55.331728 -46.365370 -38.654642 -32.059764 -26.450565 -21.706701 -17.717737 -14.383098 -11.611905 -9.322683 -7.442976 -5.908865 -4.664419 -3.661095 -2.857098 -2.216731 -1.709747 -1.310714 -0.998405 -0.755229 -0.566708 -0.420998 -0.308487 -0.221485 -0.154163 -0.102401 -0.062255 -0.037964 -0.033514 -0.033514 -0.033514 12228.257430 12228.257430 12228.257430 12188.030320 11720.846513 10711.244939 9947.398951 9410.955006 8980.203897 8710.527014 8437.634358 7771.004269 6780.143563 5790.138639 4976.021705 4198.165427 3351.268302 2602.581009 2200.605846 2076.697743 1944.198894 1448.423067 405.778368 -15.679480 94.495791 338.321702 606.602181 844.297590 715.205163 -98.448380 -171.617328 347.112894 651.655563 -40.117167 -445.241100 14.878660 472.131097 -127.299047 -601.761447 -195.794226 345.717292 250.695075 -566.124868 -554.660049 -170.388475 256.974449 199.015932 -715.491133 -803.945851 -462.458661 -744.208495 -1601.385830 -1636.030889 -1456.458277 -1329.353030 -1223.307182 -1115.833182 -1011.703456 -921.331576 -839.582586 -764.041771 -693.602123 -627.811391 -566.460304 -509.415835 -456.558465 -407.760656 -362.880890 -321.763403 -284.239921 -250.132048 -219.253818 -191.414185 -166.419369 -144.074981 -124.187920 -106.568015 -91.029458 -77.392012 -65.482048 -55.133423 -46.188210 -38.497295 -31.920854 -26.328689 -21.600446 -17.625697 -14.303896 -11.544203 -9.265201 -7.394503 -5.868269 -4.630654 -3.633206 -2.834223 -2.198100 -1.694680 -1.298614 -0.988749 -0.747552 -0.560563 -0.415873 -0.303596 -0.215354 -0.144132 -0.090386 -0.054607 -0.033628 -0.029975 -0.029975 -0.029975 11856.078824 11856.078824 11856.078824 11785.353108 11060.201980 9616.075041 8607.473247 7938.248590 7574.321942 7564.640727 8315.038711 7027.092724 5423.035377 3861.266917 3407.668051 2773.788980 1953.670355 931.552475 1110.557062 1657.615084 2243.056909 1885.006776 -903.123132 -1406.854352 -466.075234 156.288332 757.245836 1596.437395 1564.461816 -937.502770 -1067.698353 747.500753 2003.303211 -461.453182 -1741.312236 92.477115 1560.313137 -331.860732 -1683.876259 -404.802239 1084.530998 803.072586 -1314.145539 -1145.311820 -167.184247 855.012542 806.716452 -1123.986869 -1190.523777 -56.943321 -382.779170 -2159.868114 -2218.796676 -1737.669225 -1491.524358 -1336.338765 -1194.150585 -1043.169598 -932.980708 -843.791286 -765.293949 -693.675497 -627.418608 -565.889956 -508.786083 -455.918651 -407.132147 -362.273531 -321.182141 -283.687477 -249.610004 -218.763067 -190.955137 -165.992053 -143.679117 -123.822963 -106.233202 -90.723838 -77.114475 -65.231353 -54.908217 -45.987049 -38.318664 -31.763184 -26.190383 -21.479895 -17.521302 -14.214085 -11.467455 -9.200060 -7.339589 -5.822294 -4.592430 -3.601646 -2.808346 -2.177033 -1.677648 -1.284939 -0.977834 -0.738858 -0.553556 -0.409890 -0.297483 -0.206320 -0.123183 -0.068574 -0.042763 -0.028003 -0.025348 -0.025348 -0.025348 -0.059115 -0.037286 -0.026217 -0.024746 -0.024746 -0.024746 -0.040922 -0.029142 -0.021916 -0.020942 -0.020942 -0.020942 -0.023012 -0.019213 -0.016104 -0.015663 -0.015663 -0.015663 -0.014123 -0.012756 -0.011572 -0.011396 -0.011396 -0.011396 -0.009082 -0.008608 -0.008200 -0.008140 -0.008140 -0.008140 -0.006010 -0.005867 -0.005755 -0.005740 -0.005740 -0.005740 -0.004040 -0.004015 -0.004008 -0.004009 -0.004009 -0.004009 -0.002735 -0.002748 -0.002772 -0.002777 -0.002777 -0.002777 -0.001856 -0.001877 -0.001905 -0.001911 -0.001911 -0.001911 -0.001258 -0.001277 -0.001302 -0.001306 -0.001306 -0.001306 -0.000850 -0.000865 -0.000884 -0.000888 -0.000888 -0.000888 -0.000572 -0.000583 -0.000597 -0.000600 -0.000600 -0.000600 -0.000383 -0.000391 -0.000401 -0.000403 -0.000403 -0.000403 -0.000255 -0.000261 -0.000268 -0.000269 -0.000269 -0.000269 -0.000169 -0.000173 -0.000178 -0.000179 -0.000179 -0.000179 -0.000111 -0.000114 -0.000117 -0.000118 -0.000118 -0.000118 -0.000073 -0.000075 -0.000077 -0.000078 -0.000078 -0.000078 -0.000048 -0.000049 -0.000050 -0.000051 -0.000051 -0.000051 -0.000031 -0.000032 -0.000033 -0.000033 -0.000033 -0.000033 -0.000020 -0.000021 -0.000021 -0.000021 -0.000021 -0.000021 -0.000013 -0.000013 -0.000014 -0.000014 -0.000014 -0.000014 -0.000008 -0.000008 -0.000009 -0.000009 -0.000009 -0.000009 -0.000005 -0.000005 -0.000006 -0.000006 -0.000006 -0.000006 -0.000003 -0.000003 -0.000004 -0.000004 -0.000004 -0.000004 -0.000002 -0.000002 -0.000002 -0.000002 -0.000002 -0.000002 -0.000001 -0.000001 -0.000001 -0.000001 -0.000001 -0.000001 -0.000001 -0.000001 -0.000001 -0.000001 -0.000001 -0.000001 -0.000001 -0.000001 -0.000001 -0.000001 -0.000001 -0.000001 -0.000000 -0.000000 -0.000000 -0.000000 -0.000000 -0.000000 -0.000000 -0.000000 -0.000000 -0.000000 -0.000000 -0.000000 -0.000000 -0.000000 -0.000000 -0.000000 -0.000000 -0.000000 -0.000000 -0.000000 -0.000000 -0.000000 -0.000000 -0.000000 -0.000000 -0.000000 -0.000000 -0.000000 -0.000000 -0.000000 -0.000000 -0.000000 -0.000000 -0.000000 -0.000000 -0.000000 -0.000000 -0.000000 -0.000000 -0.000000 -0.000000 -0.000000 -0.000000 -0.000000 -0.000000 -0.000000 -0.000000 -0.000000 -0.000000 -0.000000 -0.000000 -0.000000 -0.000000 -0.000000 -0.000000 -0.000000 -0.000000 -0.000000 -0.000000 -0.000000 -0.000000 -0.000000 -0.000000 -0.000000 -0.000000 -0.000000 -0.000000 -0.000000 -0.000000 -0.000000 -0.000000 -0.000000 -0.000000 -0.000000 -0.000000 -0.000000 -0.000000 -0.000000 -0.000000 -0.000000 -0.000000 -0.000000 -0.000000 -0.000000 -0.000000 -0.000000 -0.000000 -0.000000 -0.000000 -0.000000 -0.000000 -0.000000 -0.000000 -0.000000 -0.000000 -0.000000 -0.000000 -0.000000 -0.000000 -0.000000 -0.000000 -0.000000 -0.000000 -0.000000 -0.000000 -0.000000 -0.000000 -0.000000 -0.000000 -0.000000 -0.000000 -0.000000 -0.000000 -0.000000 -0.000000 -0.000000 -0.000000 -0.000000 -0.000000 -0.000000 -0.000000 -0.000000 -0.000000 -0.000000 -0.000000 -0.000000 -0.000000 -0.000000 -0.000000 -0.000000 -0.000000 -0.000000 -0.000000 -0.000000 -0.000000 0.000000 0.000000 0.000000 -0.000000 -0.000000 -0.000000 0.000000 0.000000 0.000000 -0.000000 -0.000000 -0.000000 0.000000 0.000000 0.000000 -0.000000 -0.000000 -0.000000 0.000000 0.000000 0.000000 -0.000000 -0.000000 -0.000000 0.000000 0.000000 0.000000 -0.000000 -0.000000 -0.000000 0.000000 0.000000 0.000000 -0.000000 -0.000000 -0.000000 0.000000 0.000000 0.000000 -0.000000 -0.000000 -0.000000 0.000000 0.000000 0.000000 -0.000000 -0.000000 -0.000000 0.000000 0.000000 0.000000 -0.000000 -0.000000 -0.000000 0.000000 0.000000 0.000000 -0.000000 -0.000000 -0.000000 0.000000 0.000000 0.000000 -0.000000 -0.000000 -0.000000 0.000000 0.000000 0.000000 -0.000000 -0.000000 -0.000000 0.000000 0.000000 0.000000 -0.000000 -0.000000 -0.000000 0.000000 0.000000 0.000000 -0.000000 -0.000000 -0.000000 0.000000 0.000000 0.000000 -0.000000 -0.000000 -0.000000 0.000000 0.000000 0.000000 -0.000000 -0.000000 -0.000000 0.000000 0.000000 0.000000 -0.000000 -0.000000 -0.000000 0.000000 0.000000 0.000000 -0.000000 -0.000000 -0.000000 0.000000 0.000000 0.000000 -0.000000 -0.000000 -0.000000 0.000000 0.000000 0.000000 -0.000000 -0.000000 -0.000000 0.000000 0.000000 0.000000 -0.000000 -0.000000 -0.000000 0.000000 0.000000 0.000000 -0.000000 -0.000000 -0.000000 0.000000 0.000000 0.000000 -0.000000 -0.000000 -0.000000 0.000000 0.000000 0.000000 -0.000000 -0.000000 -0.000000 0.000000 0.000000 0.000000 -0.000000 -0.000000 -0.000000 0.000000 0.000000 0.000000 -0.000000 -0.000000 -0.000000 0.000000 0.000000 0.000000 -0.000000 -0.000000 -0.000000 0.000000 0.000000 0.000000 -0.000000 -0.000000 -0.000000 0.000000 0.000000 0.000000 -0.000000 -0.000000 -0.000000 0.000000 0.000000 0.000000 -0.000000 -0.000000 -0.000000 0.000000 0.000000 0.000000 -0.000000 -0.000000 -0.000000 0.000000 0.000000 0.000000 -0.000000 -0.000000 -0.000000 0.000000 0.000000 0.000000 -0.000000 -0.000000 -0.000000 0.000000 0.000000 0.000000 -0.000000 -0.000000 -0.000000 0.000000 0.000000 0.000000 -0.000000 -0.000000 -0.000000 0.000000 0.000000 0.000000 -0.000000 -0.000000 -0.000000 0.000000 0.000000 0.000000 -0.000000 -0.000000 -0.000000 0.000000 0.000000 0.000000 -0.000000 -0.000000 -0.000000 0.000000 0.000000 0.000000 -0.000000 -0.000000 -0.000000 0.000000 0.000000 0.000000 -0.000000 -0.000000 -0.000000 0.000000 0.000000 0.000000 -0.000000 -0.000000 -0.000000 0.000000 0.000000 0.000000 -0.000000 -0.000000 -0.000000 0.000000 0.000000 0.000000 -0.000000 -0.000000 -0.000000 0.000000 0.000000 0.000000 -0.000000 -0.000000 -0.000000 0.000000 0.000000 0.000000 -0.000000 -0.000000 -0.000000 0.000000 0.000000 0.000000 -0.000000 -0.000000 -0.000000 0.000000 0.000000 0.000000 -0.000000 -0.000000 -0.000000 0.000000 0.000000 0.000000 -0.000000 -0.000000 -0.000000 0.000000 0.000000 0.000000 -0.000000 -0.000000 -0.000000 0.000000 0.000000 0.000000 -0.000000 -0.000000 -0.000000 0.000000 0.000000 0.000000 -0.000000 -0.000000 -0.000000 0.000000 0.000000 0.000000 -0.000000 -0.000000 -0.000000 0.000000 0.000000 0.000000 -0.000000 -0.000000 -0.000000 0.000000 0.000000 0.000000 -0.000000 -0.000000 -0.000000 0.000000 0.000000 0.000000 -0.000000 -0.000000 -0.000000 0.000000 0.000000 0.000000 -0.000000 -0.000000 -0.000000 0.000000 0.000000 0.000000 -0.000000 -0.000000 -0.000000 0.000000 0.000000 0.000000 -0.000000 -0.000000 -0.000000 0.000000 0.000000 0.000000 -0.000000 -0.000000 -0.000000 0.000000 0.000000 0.000000 -0.000000 -0.000000 -0.000000 0.000000 0.000000 0.000000 -0.000000 -0.000000 -0.000000 0.000000 0.000000 0.000000 -0.000000 -0.000000 -0.000000 0.000000 0.000000 0.000000 -0.000000 -0.000000 -0.000000 0.000000 0.000000 0.000000 -0.000000 -0.000000 -0.000000 0.000000 0.000000 0.000000 -0.000000 -0.000000 -0.000000 0.000000 0.000000 0.000000 -0.000000 -0.000000 -0.000000 0.000000 0.000000 0.000000 -0.000000 -0.000000 -0.000000 0.000000 0.000000 0.000000 -0.000000 -0.000000 -0.000000 0.000000 0.000000 0.000000 -0.000000 -0.000000 -0.000000 0.000000 0.000000 0.000000 -0.000000 -0.000000 -0.000000 0.000000 0.000000 0.000000 -0.000000 -0.000000 -0.000000 0.000000 0.000000 0.000000 -0.000000 -0.000000 -0.000000 0.000000 0.000000 0.000000 -0.000000 -0.000000 -0.000000 0.000000 0.000000 0.000000 -0.000000 -0.000000 -0.000000 0.000000 0.000000 0.000000 -0.000000 -0.000000 -0.000000 0.000000 0.000000 0.000000 -0.000000 -0.000000 -0.000000 0.000000 0.000000 0.000000 -0.000000 -0.000000 -0.000000 0.000000 0.000000 0.000000 -0.000000 -0.000000 -0.000000 0.000000 0.000000 0.000000 -0.000000 -0.000000 -0.000000 0.000000 0.000000 0.000000 -0.000000 -0.000000 -0.000000 0.000000 0.000000 0.000000 -0.000000 -0.000000 -0.000000 0.000000 0.000000 0.000000 -0.000000 -0.000000 -0.000000 0.000000 0.000000 0.000000 -0.000000 -0.000000 -0.000000 0.000000 0.000000 0.000000 -0.000000 -0.000000 -0.000000 0.000000 0.000000 0.000000 -0.000000 -0.000000 -0.000000 0.000000 0.000000 0.000000 -0.000000 -0.000000 -0.000000 0.000000 0.000000 0.000000 -0.000000 -0.000000 -0.000000 0.000000 0.000000 0.000000 -0.000000 -0.000000 -0.000000 0.000000 0.000000 0.000000 -0.000000 -0.000000 -0.000000 0.000000 0.000000 0.000000 -0.000000 -0.000000 -0.000000 0.000000 0.000000 0.000000 -0.000000 -0.000000 -0.000000 0.000000 0.000000 0.000000 -0.000000 -0.000000 -0.000000 0.000000 0.000000 0.000000 -0.000000 -0.000000 -0.000000 0.000000 0.000000 0.000000 -0.000000 -0.000000 -0.000000 0.000000 0.000000 0.000000 -0.000000 -0.000000 -0.000000 0.000000 0.000000 0.000000 -0.000000 -0.000000 -0.000000 0.000000 0.000000 0.000000 -0.000000 -0.000000 -0.000000 0.000000 0.000000 0.000000 -0.000000 -0.000000 -0.000000 0.000000 0.000000 0.000000 -0.000000 -0.000000 -0.000000 0.000000 0.000000 0.000000 -0.000000 -0.000000 -0.000000 0.000000 0.000000 0.000000 -0.000000 -0.000000 -0.000000 0.000000 0.000000 0.000000 -0.000000 -0.000000 -0.000000 0.000000 0.000000 0.000000 -0.000000 -0.000000 -0.000000 0.000000 0.000000 0.000000 -0.000000 -0.000000 -0.000000 0.000000 0.000000 0.000000 -0.000000 -0.000000 -0.000000 0.000000 0.000000 0.000000 -0.000000 -0.000000 -0.000000 0.000000 0.000000 0.000000 -0.000000 -0.000000 -0.000000 0.000000 0.000000 0.000000 -0.000000 -0.000000 -0.000000 0.000000 0.000000 0.000000 -0.000000 -0.000000 -0.000000 0.000000 0.000000 0.000000 -0.000000 -0.000000 -0.000000 -0.000000 -0.000000 -0.000000 -0.000000 -0.000000 -0.000000 -0.000000 -0.000000 -0.000000 -0.000000 -0.000000 -0.000000 -0.000000 -0.000000 -0.000000 -0.000000 -0.000000 -0.000000 -0.000000 -0.000000 -0.000000 -0.000000 -0.000000 -0.000000 -0.000000 -0.000000 -0.000000 0.000000 -0.000000 -0.000000 -0.000000 -0.000000 -0.000000 0.000000 -0.000000 -0.000000 -0.000000 -0.000000 -0.000000 0.000000 -0.000000 -0.000000 -0.000000 -0.000000 -0.000000 0.000000 -0.000000 -0.000000 -0.000000 -0.000000 -0.000000 0.000000 -0.000000 -0.000000 -0.000000 -0.000000 -0.000000 0.000000 -0.000000 -0.000000 -0.000000 -0.000000 -0.000000 0.000000 -0.000000 -0.000000 -0.000000 -0.000000 -0.000000 0.000000 -0.000000 -0.000000 -0.000000 -0.000000 -0.000000 0.000000 -0.000000 -0.000000 -0.000000 -0.000000 -0.000000 0.000000 -0.000000 -0.000000 -0.000000 -0.000000 -0.000000 0.000000 -0.000000 -0.000000 -0.000000 -0.000000 -0.000000 0.000000 -0.000000 -0.000000 -0.000000 -0.000000 -0.000000 0.000000 -0.000000 -0.000000 -0.000000 -0.000000 -0.000000 0.000000 -0.000000 -0.000000 -0.000000 -0.000000 -0.000000 0.000000 -0.000000 -0.000000 -0.000000 -0.000000 -0.000000 0.000000 -0.000000 -0.000000 -0.000000 -0.000000 -0.000000 0.000000 -0.000000 -0.000000 -0.000000 -0.000000 -0.000000 0.000000 -0.000000 -0.000000 -0.000000 -0.000000 -0.000000 0.000000 -0.000000 -0.000000 -0.000000 -0.000000 -0.000000 0.000000 -0.000000 -0.000000 -0.000000 -0.000000 -0.000000 -0.000000 -0.000000 -0.000000 -0.000000 -0.000000 -0.000000 -0.000000 -0.000000 -0.000000 -0.000000 -0.000000 -0.000000 -0.000000 -0.000000 -0.000000 -0.000000 -0.000000 -0.000000 -0.000000 -0.000000 -0.000000 -0.000000 -0.000000 -0.000000 -0.000000 -0.000000 -0.000000 -0.000000 -0.000000 -0.000000 -0.000000 -0.000000 -0.000000 -0.000000 -0.000000 -0.000000 -0.000000 -0.000000 -0.000000 -0.000000 -0.000000 -0.000000 -0.000000 -0.000000 -0.000000 -0.000000 -0.000000 -0.000000 -0.000000 -0.000000 -0.000000 -0.000000 -0.000000 -0.000000 -0.000000 -0.000000 -0.000000 -0.000000 -0.000000 -0.000000 -0.000000 -0.000000 -0.000000 -0.000000 -0.000000 -0.000000 -0.000000 -0.000000 -0.000000 -0.000000 -0.000000 -0.000000 -0.000000 -0.000000 -0.000000 -0.000000 -0.000000 -0.000000 -0.000000 -0.000000 -0.000000 -0.000000 -0.000000 -0.000000 -0.000000 -0.000000 -0.000000 -0.000000 -0.000000 -0.000000 13602.357659 13602.357659 13602.357659 13582.445462 13119.170634 14291.062256 16741.711982 16721.380815 15354.508733 14954.740098 15722.244713 14777.076669 14722.648736 13981.957228 11650.918375 11540.710604 11356.240499 9752.916348 9278.742656 7885.810348 6655.726067 6118.630683 4393.530114 4551.310112 4346.851344 2840.360291 2173.820002 1945.589196 1768.584010 1592.760724 1414.472829 1240.320687 1076.759860 927.789011 794.973236 678.168286 576.281626 487.835635 411.302851 345.264625 288.460575 239.783826 198.257348 163.009538 133.255736 108.286302 87.459497 70.197113 55.981260 44.351387 34.901113 27.274727 21.163421 16.301312 12.461396 9.451496 7.110310 5.303614 3.920692 2.871012 2.081197 1.492302 1.057396 0.739446 0.509500 0.345130 0.229127 0.148411 0.093146 0.056008 0.031603 0.016006 0.006396 0.000772 -0.002264 -0.003672 -0.004100 -0.003974 -0.003567 -0.003047 -0.002512 -0.002015 -0.001582 -0.001220 -0.000926 -0.000693 -0.000512 -0.000374 -0.000271 -0.000194 -0.000137 -0.000097 -0.000067 -0.000047 -0.000032 -0.000022 -0.000015 -0.000010 -0.000007 -0.000004 -0.000003 -0.000002 -0.000001 -0.000001 -0.000000 -0.000000 -0.000000 -0.000000 -0.000000 -0.000000 -0.000000 13218.245784 13218.245784 13218.245784 13239.999175 13216.931951 14290.624736 16402.356336 16782.630329 14768.143923 13269.117745 13200.410711 12427.495632 12097.896066 11533.196903 9951.265969 9348.956771 8766.897057 7867.685336 7145.001977 6236.908228 5412.822955 4778.915429 4038.830215 3629.186547 3200.936872 2671.878929 2270.494198 2010.539731 1804.486361 1610.941880 1423.729902 1245.559483 1080.322877 930.639664 797.447748 680.365895 578.233354 489.562119 412.826745 346.609248 289.647027 240.829739 199.177120 163.815197 133.957818 108.894480 87.982922 70.644538 56.361049 44.671466 35.168911 27.497133 21.346744 16.451271 12.583115 9.549518 7.188619 5.365670 3.969464 2.909022 2.110567 1.514797 1.074468 0.752283 0.519058 0.352173 0.234260 0.152110 0.095777 0.057854 0.032877 0.016871 0.006970 0.001144 -0.002031 -0.003533 -0.004022 -0.003935 -0.003552 -0.003045 -0.002518 -0.002025 -0.001593 -0.001230 -0.000935 -0.000700 -0.000518 -0.000379 -0.000274 -0.000197 -0.000140 -0.000098 -0.000069 -0.000047 -0.000033 -0.000022 -0.000015 -0.000010 -0.000007 -0.000004 -0.000003 -0.000002 -0.000001 -0.000001 -0.000000 -0.000000 -0.000000 -0.000000 -0.000000 -0.000000 -0.000000 13012.313000 13012.313000 13012.313000 13014.029168 13016.627069 13101.132269 13284.418803 13187.712113 12543.927543 11965.114240 11475.642184 10935.222473 10351.405985 9695.736835 8955.180907 8256.801076 7595.542281 6922.740923 6248.764525 5575.953465 4937.507297 4357.653707 3836.847795 3392.847394 2997.634659 2635.476523 2324.396819 2063.993087 1836.539562 1627.891290 1432.693688 1250.897096 1084.150938 933.815677 800.255426 682.878994 580.472139 491.544504 414.576665 348.152879 291.008587 242.029669 200.232159 164.739308 134.763187 109.592243 88.583576 71.158110 56.797106 45.039077 35.476578 27.752737 21.557507 16.623741 12.723161 9.662347 7.278799 5.437166 4.025682 2.952858 2.144457 1.540768 1.094192 0.767122 0.530113 0.360326 0.240208 0.156399 0.098831 0.059998 0.034361 0.017879 0.007641 0.001579 -0.001757 -0.003368 -0.003929 -0.003888 -0.003533 -0.003043 -0.002525 -0.002036 -0.001605 -0.001241 -0.000945 -0.000709 -0.000526 -0.000385 -0.000279 -0.000200 -0.000142 -0.000100 -0.000070 -0.000048 -0.000033 -0.000023 -0.000015 -0.000010 -0.000007 -0.000005 -0.000003 -0.000002 -0.000001 -0.000001 -0.000000 -0.000000 -0.000000 -0.000000 -0.000000 -0.000000 -0.000000 12985.454260 12985.454260 12985.454260 12982.927186 12956.197206 12902.993019 12843.942998 12651.428318 12235.420811 11742.838219 11254.327415 10722.452194 10139.192130 9499.460060 8811.531159 8132.007971 7471.749508 6813.331661 6155.627664 5507.017097 4890.056203 4324.321538 3817.812670 3374.476941 2982.728741 2634.506079 2332.063157 2071.700688 1841.447983 1630.555217 1434.138919 1251.787349 1084.811256 934.375681 800.755869 683.329039 580.873827 491.900429 414.890889 348.430027 291.253001 242.245034 200.421501 164.905149 134.907724 109.717480 88.691397 71.250312 56.875405 45.105098 35.531843 27.798659 21.595381 16.654740 12.748339 9.682636 7.295019 5.450029 4.035800 2.960750 2.150560 1.545446 1.097746 0.769797 0.532107 0.361797 0.241281 0.157173 0.099383 0.060386 0.034629 0.018061 0.007763 0.001658 -0.001707 -0.003338 -0.003912 -0.003879 -0.003529 -0.003043 -0.002526 -0.002038 -0.001607 -0.001244 -0.000947 -0.000711 -0.000527 -0.000386 -0.000280 -0.000201 -0.000143 -0.000101 -0.000070 -0.000049 -0.000033 -0.000023 -0.000015 -0.000010 -0.000007 -0.000005 -0.000003 -0.000002 -0.000001 -0.000001 -0.000001 -0.000000 -0.000000 -0.000000 -0.000000 -0.000000 -0.000000 12985.454260 12985.454260 12985.454260 12982.927186 12956.197206 12902.993019 12843.942998 12651.428318 12235.420811 11742.838219 11254.327415 10722.452194 10139.192130 9499.460060 8811.531159 8132.007971 7471.749508 6813.331661 6155.627664 5507.017097 4890.056203 4324.321538 3817.812670 3374.476941 2982.728741 2634.506079 2332.063157 2071.700688 1841.447983 1630.555217 1434.138919 1251.787349 1084.811256 934.375681 800.755869 683.329039 580.873827 491.900429 414.890889 348.430027 291.253001 242.245034 200.421501 164.905149 134.907724 109.717480 88.691397 71.250312 56.875405 45.105098 35.531843 27.798659 21.595381 16.654740 12.748339 9.682636 7.295019 5.450029 4.035800 2.960750 2.150560 1.545446 1.097746 0.769797 0.532107 0.361797 0.241281 0.157173 0.099383 0.060386 0.034629 0.018061 0.007763 0.001658 -0.001707 -0.003338 -0.003912 -0.003879 -0.003529 -0.003043 -0.002526 -0.002038 -0.001607 -0.001244 -0.000947 -0.000711 -0.000527 -0.000386 -0.000280 -0.000201 -0.000143 -0.000101 -0.000070 -0.000049 -0.000033 -0.000023 -0.000015 -0.000010 -0.000007 -0.000005 -0.000003 -0.000002 -0.000001 -0.000001 -0.000001 -0.000000 -0.000000 -0.000000 -0.000000 -0.000000 -0.000000 12985.454260 12985.454260 12985.454260 12982.927186 12956.197206 12902.993019 12843.942998 12651.428318 12235.420811 11742.838219 11254.327415 10722.452194 10139.192130 9499.460060 8811.531159 8132.007971 7471.749508 6813.331661 6155.627664 5507.017097 4890.056203 4324.321538 3817.812670 3374.476941 2982.728741 2634.506079 2332.063157 2071.700688 1841.447983 1630.555217 1434.138919 1251.787349 1084.811256 934.375681 800.755869 683.329039 580.873827 491.900429 414.890889 348.430027 291.253001 242.245034 200.421501 164.905149 134.907724 109.717480 88.691397 71.250312 56.875405 45.105098 35.531843 27.798659 21.595381 16.654740 12.748339 9.682636 7.295019 5.450029 4.035800 2.960750 2.150560 1.545446 1.097746 0.769797 0.532107 0.361797 0.241281 0.157173 0.099383 0.060386 0.034629 0.018061 0.007763 0.001658 -0.001707 -0.003338 -0.003912 -0.003879 -0.003529 -0.003043 -0.002526 -0.002038 -0.001607 -0.001244 -0.000947 -0.000711 -0.000527 -0.000386 -0.000280 -0.000201 -0.000143 -0.000101 -0.000070 -0.000049 -0.000033 -0.000023 -0.000015 -0.000010 -0.000007 -0.000005 -0.000003 -0.000002 -0.000001 -0.000001 -0.000001 -0.000000 -0.000000 -0.000000 -0.000000 -0.000000 -0.000000 11805.999418 11805.999418 11805.999418 11730.954021 10991.949504 9617.379489 8652.764712 7968.895278 7370.825220 7298.142640 8404.514991 7023.325229 5310.830785 3644.136056 3204.993834 2629.357692 1668.980537 537.674911 767.272686 1619.351067 2347.458125 2046.810156 -1093.607786 -1634.727643 -518.774928 142.575977 769.970134 1709.537976 1712.762525 -1050.390843 -1216.676580 829.731561 2280.037705 -531.080449 -2023.821165 92.179661 1706.011541 -373.963016 -1842.720643 -433.769797 1168.129341 859.088756 -1395.456860 -1207.294138 -167.283969 898.916210 853.888037 -1139.033179 -1213.707885 -16.764462 -316.253971 -2156.697752 -2251.814354 -1758.483256 -1503.568305 -1346.436776 11487.616368 11487.616368 11487.616368 11377.812443 10287.027544 9341.830559 12514.727872 9511.526062 11503.456156 7733.123390 7883.441427 7271.209335 9270.307732 9441.929343 9845.166037 7768.384463 9080.831051 8819.463136 9842.102405 10694.338330 10893.555909 8317.641901 9002.903097 8741.115969 8595.269192 9443.656888 8615.254143 7920.163180 7668.910824 8072.593147 9872.508548 7455.188830 9285.667300 7859.053850 10137.343154 8242.197169 9625.797562 7266.241771 9440.458087 6985.598321 8664.984463 9203.599039 8279.236322 7523.545343 8493.594840 7850.526715 7325.694967 8571.219132 7473.877956 9331.008811 8057.264601 10374.869048 8770.865736 -111.170311 -244.465775 -1415.966155 11074.535105 11074.535105 11074.535105 10902.323812 9458.809929 8085.791727 10116.402549 9345.155522 10369.232865 9392.529067 5872.119158 9872.356096 9103.567259 9555.955777 6581.184575 8433.371144 8005.983716 8486.805760 9949.754873 8278.295647 9634.557206 7946.585867 6701.124141 8524.868434 7487.613393 7399.741150 7807.718680 6994.615912 6678.275056 8301.829489 8477.503548 7242.934739 6576.766463 8932.456168 8617.851260 9508.561572 11170.810618 9768.109438 9356.390653 11535.616817 8481.808021 8673.927787 10461.559940 10011.945552 6943.058063 10963.699715 6679.325113 8279.208527 8832.968318 9372.474931 9212.195792 9606.589889 1233.040177 1177.165747 112.051667 121.590298 10865.273473 10865.273473 10865.273473 10748.725376 9275.340395 8192.189567 11757.397887 12236.800790 9104.747650 8303.073893 9469.791709 10706.781287 6687.229714 7114.918826 8141.552905 7271.927906 6457.849095 5166.566971 6937.960807 7243.262405 8825.081539 8133.791899 6409.267707 8853.629851 7196.016458 7774.416461 6426.855243 8805.681799 5332.485011 7603.524566 5352.689791 6922.771520 5601.903753 6576.812277 6334.703507 5996.686164 6075.821691 8574.571271 8006.821305 9861.580170 7390.587767 9053.921399 5671.450023 9977.257080 8484.938019 6944.674452 8410.043852 8188.955019 6933.151160 7811.726060 3249.174548 6106.921279 537.055291 2795.422975 -303.291815 -517.969483 10884.180605 10884.180605 10884.180605 10694.207430 8407.493904 5607.859993 11559.490165 11171.326735 7396.730077 11825.022562 8477.846382 8465.753508 10173.894066 9001.586316 8929.239001 9603.775093 8329.021414 8294.040990 5180.181909 7283.582370 7060.520926 5193.563054 3631.448351 5848.305428 6212.606227 6786.409913 7166.580940 2334.768583 5123.176137 7491.424690 5654.357823 4444.109707 4624.618323 5761.968350 3838.949246 4109.530886 8101.164890 6711.586117 4307.417215 6061.156428 7277.791776 4453.941091 5852.282198 6666.781771 5804.079556 1677.464591 5826.409781 4986.570650 5268.135311 2039.644397 8272.693678 435.920089 1384.458736 2509.234551 931.847383 2499.802360 10