<VTKFile type="PolyData">
<PolyData>
<Piece NumberOfPoints="8632" NumberOfVerts="8632" NumberOfLines="0" NumberOfStrips="0" NumberOfPolys="0">
<PointData>
<DataArray type="Float64" Name="Pressure" format="ascii">
 13037.899232 13037.899232 13037.899232 13032.360546 12970.391568 12808.961756 12611.890711 12360.181718 12060.512903 11728.099935 11354.237172 10918.388416 10420.514895 9876.097844 9301.828433 8700.394089 8059.615938 7371.627377 6633.442978 5850.056417 5030.931212 4186.026364 3321.374677 2455.544276 1672.218665 1075.651818 690.247975 472.196732 365.197460 318.868445 284.101679 211.568329 85.217545 -33.923197 -78.532938 -54.987546 -9.945155 -0.498720 -71.050777 -187.482271 -261.264428 -281.610427 -303.096111 -387.845777 -547.356152 -708.777327 -835.245943 -977.560453 -1164.317560 -1332.315093 -1427.684494 -1459.879869 -1452.809972 -1422.943950 -1379.862596 -1328.310221 -1270.823492 -1209.642811 -1146.953519 -1084.257394 -1022.414233 -961.931450 -903.126293 -846.206732 -791.311890 -738.534475 -687.934539 -639.548435 -593.394738 -549.478104 -507.791709 -468.318766 -431.033476 -395.901677 -362.881382 -331.923302 -302.971427 -275.963684 -250.832665 -227.506411 -205.909233 -185.962539 -167.585641 -150.696536 -135.212629 -121.051404 -108.131022 -96.370855 -85.691946 -76.017408 -67.272745 -59.386123 -52.288581 -45.914177 -40.200101 -35.086734 -30.517670 -26.439718 -22.802879 -19.560370 -16.668761 -14.088467 -11.785133 -9.732961 -7.920772 -6.352152 -5.005402 -4.142520 -3.979938 -3.979938 -3.979938 13037.899232 13037.899232 13037.899232 13032.360546 12970.391568 12808.961756 12611.890711 12360.181718 12060.512903 11728.099935 11354.237172 10918.388416 10420.514895 9876.097844 9301.828433 8700.394089 8059.615938 7371.627377 6633.442978 5850.056417 5030.931212 4186.026364 3321.374677 2455.544276 1672.218665 1075.651818 690.247975 472.196732 365.197460 318.868445 284.101679 211.568329 85.217545 -33.923197 -78.532938 -54.987546 -9.945155 -0.498720 -71.050777 -187.482271 -261.264428 -281.610427 -303.096111 -387.845777 -547.356152 -708.777327 -835.245943 -977.560453 -1164.317560 -1332.315093 -1427.684494 -1459.879869 -1452.809972 -1422.943950 -1379.862596 -1328.310221 -1270.823492 -1209.642811 -1146.953519 -1084.257394 -1022.414233 -961.931450 -903.126293 -846.206732 -791.311890 -738.534475 -687.934539 -639.548435 -593.394738 -549.478104 -507.791709 -468.318766 -431.033476 -395.901677 -362.881382 -331.923302 -302.971427 -275.963684 -250.832665 -227.506411 -205.909233 -185.962539 -167.585641 -150.696536 -135.212629 -121.051404 -108.131022 -96.370855 -85.691946 -76.017408 -67.272745 -59.386123 -52.288581 -45.914177 -40.200101 -35.086734 -30.517670 -26.439718 -22.802879 -19.560370 -16.668761 -14.088467 -11.785133 -9.732961 -7.920772 -6.352152 -5.005402 -4.142520 -3.979938 -3.979938 -3.979938 13037.899232 13037.899232 13037.899232 13032.360546 12970.391568 12808.961756 12611.890711 12360.181718 12060.512903 11728.099935 11354.237172 10918.388416 10420.514895 9876.097844 9301.828433 8700.394089 8059.615938 7371.627377 6633.442978 5850.056417 5030.931212 4186.026364 3321.374677 2455.544276 1672.218665 1075.651818 690.247975 472.196732 365.197460 318.868445 284.101679 211.568329 85.217545 -33.923197 -78.532938 -54.987546 -9.945155 -0.498720 -71.050777 -187.482271 -261.264428 -281.610427 -303.096111 -387.845777 -547.356152 -708.777327 -835.245943 -977.560453 -1164.317560 -1332.315093 -1427.684494 -1459.879869 -1452.809972 -1422.943950 -1379.862596 -1328.310221 -1270.823492 -1209.642811 -1146.953519 -1084.257394 -1022.414233 -961.931450 -903.126293 -846.206732 -791.311890 -738.534475 -687.934539 -639.548435 -593.394738 -549.478104 -507.791709 -468.318766 -431.033476 -395.901677 -362.881382 -331.923302 -302.971427 -275.963684 -250.832665 -227.506411 -205.909233 -185.962539 -167.585641 -150.696536 -135.212629 -121.051404 -108.131022 -96.370855 -85.691946 -76.017408 -67.272745 -59.386123 -52.288581 -45.914177 -40.200101 -35.086734 -30.517670 -26.439718 -22.802879 -19.560370 -16.668761 -14.088467 -11.785133 -9.732961 -7.920772 -6.352152 -5.005402 -4.142520 -3.979938 -3.979938 -3.979938 13041.100329 13041.100329 13041.100329 13035.234609 12969.763459 12803.379641 12602.325766 12338.221738 12029.881009 11708.212091 11351.303251 10917.975594 10413.797007 9858.853627 9279.068675 8679.628657 8037.271308 7350.629814 6611.308767 5822.583017 4992.992672 4133.392679 3253.846097 2354.504738 1543.467334 961.949364 610.905526 424.604901 342.007460 315.907545 299.276924 232.600031 83.351207 -60.172737 -100.961713 -60.336998 4.302332 28.262330 -49.572984 -209.239843 -280.264139 -282.255909 -283.542630 -353.484095 -539.488312 -726.118103 -836.301365 -957.626983 -1149.849034 -1363.568783 -1452.901646 -1474.096661 -1460.565210 -1427.276279 -1382.555913 -1330.235974 -1272.087915 -1210.294274 -1147.226690 -1084.356918 -1022.439202 -961.924720 -903.105779 -846.179980 -791.282181 -738.503313 -687.902669 -639.516266 -593.362528 -549.446034 -507.759927 -468.287398 -431.002638 -395.871477 -362.851920 -331.894670 -302.943708 -275.936950 -250.806978 -227.481820 -205.885778 -185.940245 -167.564525 -150.676603 -135.193877 -121.033821 -108.114589 -96.355547 -85.677733 -76.004254 -67.260611 -59.374968 -52.278361 -45.904846 -40.191613 -35.079040 -30.510717 -26.433439 -22.797179 -19.555073 -16.663487 -14.082325 -11.776051 -9.716677 -7.893203 -6.317116 -4.977144 -4.120559 -3.959419 -3.959419 -3.959419 13075.908910 13075.908910 13075.908910 13066.563356 12966.778602 12774.602129 12553.323766 12107.173617 11661.474065 11522.075027 11425.991652 11005.220600 10396.878023 9684.887258 9030.687045 8458.385381 7759.676889 7087.900336 6340.558312 5489.937663 4516.618490 3482.196718 2461.724384 1113.974794 -60.619117 -385.308343 -267.729326 -91.788163 92.282946 292.722296 501.428374 614.314849 62.436215 -503.328319 -383.812363 -126.161990 169.271844 490.500625 253.112973 -561.238626 -566.643945 -290.157608 -1.498527 192.042813 -489.385925 -1018.636657 -801.270630 -501.230454 -977.541489 -1723.340764 -1737.941620 -1631.127668 -1544.822146 -1474.226707 -1412.223154 -1353.256733 -1287.515087 -1217.036269 -1149.951542 -1085.326096 -1022.675540 -961.851615 -902.898204 -845.911453 -790.984683 -738.191542 -687.583935 -639.194609 -593.040478 -549.125405 -507.442172 -467.973787 -430.694329 -395.569548 -362.557373 -331.608425 -302.666593 -275.669690 -250.550184 -227.235993 -205.651298 -185.717383 -167.353441 -150.477357 -135.006435 -120.858068 -107.950336 -96.202540 -85.535666 -75.872776 -67.139334 -59.263477 -52.176217 -45.811596 -40.106787 -35.002150 -30.441230 -26.370710 -22.740262 -19.502249 -16.611036 -14.021453 -11.685425 -9.547325 -7.551684 -5.856896 -4.628337 -3.869798 -3.734720 -3.734720 -3.734720 13133.728872 13133.728872 13133.728872 13123.122610 12960.408609 12750.279300 12954.753787 11748.564307 10696.789350 11470.966249 12254.405547 11472.784694 10878.252732 9517.985094 8592.137642 8499.998471 7016.005523 6590.198897 5830.113544 4876.055441 3721.329495 2048.419790 1648.158280 -975.821848 -3167.027886 -2110.010478 -1314.565040 -694.643138 -196.517662 277.817496 861.070375 1451.149973 50.842155 -1393.307703 -843.689631 -211.847170 389.216932 1168.528341 654.071829 -1083.793043 -990.842243 -299.492651 395.642653 777.642857 -774.595682 -1603.969733 -749.623643 -139.273298 -1395.669061 -2491.406613 -2120.230311 -1818.600299 -1644.179080 -1529.415501 -1448.073208 -1386.700613 -1316.562858 -1228.811136 -1154.227532 -1086.862071 -1023.111355 -961.833937 -902.687741 -845.615968 -790.650099 -737.838349 -687.221926 -638.828947 -592.674259 -548.760765 -507.080793 -467.617121 -430.343697 -395.226179 -362.222408 -331.282912 -302.351475 -275.365790 -250.258203 -226.956495 -205.384719 -185.464027 -167.113490 -150.250877 -134.793388 -120.658319 -107.763669 -96.028666 -85.374236 -75.723387 -67.001546 -59.136814 -52.060180 -45.705667 -40.010429 -34.914794 -30.362243 -26.299284 -22.675143 -19.441011 -16.548228 -13.943752 -11.558443 -9.275733 -6.817928 -5.009921 -4.082421 -3.525593 -3.423628 -3.423628 -3.423628 -4.661300 -3.860368 -3.437757 -3.380603 -3.380603 -3.380603 -3.864350 -3.411417 -3.127144 -3.088246 -3.088246 -3.088246 -2.939929 -2.786279 -2.659909 -2.642066 -2.642066 -2.642066 -2.349544 -2.292658 -2.243597 -2.236350 -2.236350 -2.236350 -1.918120 -1.898809 -1.882726 -1.880441 -1.880441 -1.880441 -1.581261 -1.576769 -1.574077 -1.573839 -1.573839 -1.573839 -1.308406 -1.309585 -1.311963 -1.312493 -1.312493 -1.312493 -1.083311 -1.086421 -1.090421 -1.091182 -1.091182 -1.091182 -0.896091 -0.899622 -0.903857 -0.904636 -0.904636 -0.904636 -0.739930 -0.743301 -0.747248 -0.747965 -0.747965 -0.747965 -0.609666 -0.612678 -0.616170 -0.616800 -0.616800 -0.616800 -0.501145 -0.503756 -0.506769 -0.507312 -0.507312 -0.507312 -0.410919 -0.413147 -0.415713 -0.416175 -0.416175 -0.416175 -0.336081 -0.337966 -0.340134 -0.340524 -0.340524 -0.340524 -0.274166 -0.275750 -0.277572 -0.277899 -0.277899 -0.277899 -0.223076 -0.224402 -0.225927 -0.226201 -0.226201 -0.226201 -0.181032 -0.182138 -0.183410 -0.183638 -0.183638 -0.183638 -0.146528 -0.147447 -0.148504 -0.148694 -0.148694 -0.148694 -0.118288 -0.119049 -0.119925 -0.120083 -0.120083 -0.120083 -0.095238 -0.095867 -0.096591 -0.096721 -0.096721 -0.096721 -0.076477 -0.076995 -0.077591 -0.077699 -0.077699 -0.077699 -0.061249 -0.061674 -0.062164 -0.062252 -0.062252 -0.062252 -0.048922 -0.049271 -0.049672 -0.049744 -0.049744 -0.049744 -0.038972 -0.039257 -0.039584 -0.039643 -0.039643 -0.039643 -0.030963 -0.031195 -0.031461 -0.031509 -0.031509 -0.031509 -0.024534 -0.024722 -0.024938 -0.024977 -0.024977 -0.024977 -0.019388 -0.019540 -0.019715 -0.019746 -0.019746 -0.019746 -0.015280 -0.015402 -0.015544 -0.015569 -0.015569 -0.015569 -0.012010 -0.012108 -0.012222 -0.012243 -0.012243 -0.012243 -0.009414 -0.009493 -0.009584 -0.009601 -0.009601 -0.009601 -0.007359 -0.007423 -0.007496 -0.007509 -0.007509 -0.007509 -0.005738 -0.005788 -0.005846 -0.005857 -0.005857 -0.005857 -0.004461 -0.004501 -0.004548 -0.004556 -0.004556 -0.004556 -0.003459 -0.003491 -0.003528 -0.003534 -0.003534 -0.003534 -0.002675 -0.002700 -0.002729 -0.002735 -0.002735 -0.002735 -0.002063 -0.002083 -0.002106 -0.002110 -0.002110 -0.002110 -0.001587 -0.001602 -0.001620 -0.001624 -0.001624 -0.001624 -0.001217 -0.001229 -0.001243 -0.001246 -0.001246 -0.001246 -0.000931 -0.000940 -0.000951 -0.000953 -0.000953 -0.000953 -0.000710 -0.000718 -0.000726 -0.000728 -0.000728 -0.000728 -0.000540 -0.000546 -0.000553 -0.000554 -0.000554 -0.000554 -0.000410 -0.000414 -0.000419 -0.000420 -0.000420 -0.000420 -0.000310 -0.000314 -0.000318 -0.000318 -0.000318 -0.000318 -0.000234 -0.000237 -0.000240 -0.000240 -0.000240 -0.000240 -0.000176 -0.000178 -0.000180 -0.000181 -0.000181 -0.000181 -0.000132 -0.000134 -0.000135 -0.000136 -0.000136 -0.000136 -0.000099 -0.000100 -0.000101 -0.000102 -0.000102 -0.000102 -0.000074 -0.000075 -0.000076 -0.000076 -0.000076 -0.000076 -0.000055 -0.000056 -0.000056 -0.000057 -0.000057 -0.000057 -0.000041 -0.000041 -0.000042 -0.000042 -0.000042 -0.000042 -0.000030 -0.000031 -0.000031 -0.000031 -0.000031 -0.000031 -0.000022 -0.000023 -0.000023 -0.000023 -0.000023 -0.000023 -0.000016 -0.000017 -0.000017 -0.000017 -0.000017 -0.000017 -0.000012 -0.000012 -0.000012 -0.000012 -0.000012 -0.000012 -0.000009 -0.000009 -0.000009 -0.000009 -0.000009 -0.000009 -0.000006 -0.000007 -0.000007 -0.000007 -0.000007 -0.000007 -0.000005 -0.000005 -0.000005 -0.000005 -0.000005 -0.000005 -0.000003 -0.000003 -0.000004 -0.000004 -0.000004 -0.000004 -0.000002 -0.000002 -0.000003 -0.000003 -0.000003 -0.000003 -0.000002 -0.000002 -0.000002 -0.000002 -0.000002 -0.000002 -0.000001 -0.000001 -0.000001 -0.000001 -0.000001 -0.000001 -0.000001 -0.000001 -0.000001 -0.000001 -0.000001 -0.000001 -0.000001 -0.000001 -0.000001 -0.000001 -0.000001 -0.000001 -0.000000 -0.000000 -0.000000 -0.000000 -0.000000 -0.000000 -0.000000 -0.000000 -0.000000 -0.000000 -0.000000 -0.000000 -0.000000 -0.000000 -0.000000 -0.000000 -0.000000 -0.000000 -0.000000 -0.000000 -0.000000 -0.000000 -0.000000 -0.000000 -0.000000 -0.000000 -0.000000 -0.000000 -0.000000 -0.000000 -0.000000 -0.000000 -0.000000 -0.000000 -0.000000 -0.000000 -0.000000 -0.000000 -0.000000 -0.000000 -0.000000 -0.000000 -0.000000 -0.000000 -0.000000 -0.000000 -0.000000 -0.000000 -0.000000 -0.000000 -0.000000 -0.000000 -0.000000 -0.000000 -0.000000 -0.000000 -0.000000 -0.000000 -0.000000 -0.000000 -0.000000 -0.000000 -0.000000 -0.000000 -0.000000 -0.000000 -0.000000 -0.000000 -0.000000 -0.000000 -0.000000 -0.000000 -0.000000 -0.000000 -0.000000 -0.000000 -0.000000 -0.000000 -0.000000 -0.000000 -0.000000 -0.000000 -0.000000 -0.000000 -0.000000 -0.000000 -0.000000 -0.000000 -0.000000 -0.000000 -0.000000 -0.000000 -0.000000 -0.000000 -0.000000 -0.000000 -0.000000 -0.000000 -0.000000 -0.000000 -0.000000 -0.000000 -0.000000 -0.000000 -0.000000 -0.000000 -0.000000 -0.000000 -0.000000 -0.000000 -0.000000 0.000000 0.000000 0.000000 -0.000000 -0.000000 -0.000000 0.000000 0.000000 0.000000 -0.000000 -0.000000 -0.000000 0.000000 0.000000 0.000000 -0.000000 -0.000000 -0.000000 0.000000 0.000000 0.000000 -0.000000 -0.000000 -0.000000 0.000000 0.000000 0.000000 -0.000000 -0.000000 -0.000000 0.000000 0.000000 0.000000 -0.000000 -0.000000 -0.000000 0.000000 0.000000 0.000000 -0.000000 -0.000000 -0.000000 0.000000 0.000000 0.000000 -0.000000 -0.000000 -0.000000 0.000000 0.000000 0.000000 -0.000000 -0.000000 -0.000000 0.000000 0.000000 0.000000 -0.000000 -0.000000 -0.000000 0.000000 0.000000 0.000000 -0.000000 -0.000000 -0.000000 0.000000 0.000000 0.000000 -0.000000 -0.000000 -0.000000 0.000000 0.000000 0.000000 -0.000000 -0.000000 -0.000000 0.000000 0.000000 0.000000 -0.000000 -0.000000 -0.000000 0.000000 0.000000 0.000000 -0.000000 -0.000000 -0.000000 0.000000 0.000000 0.000000 -0.000000 -0.000000 -0.000000 0.000000 0.000000 0.000000 -0.000000 -0.000000 -0.000000 0.000000 0.000000 0.000000 -0.000000 -0.000000 -0.000000 0.000000 0.000000 0.000000 -0.000000 -0.000000 -0.000000 0.000000 0.000000 0.000000 -0.000000 -0.000000 -0.000000 0.000000 0.000000 0.000000 -0.000000 -0.000000 -0.000000 0.000000 0.000000 0.000000 -0.000000 -0.000000 -0.000000 0.000000 0.000000 0.000000 -0.000000 -0.000000 -0.000000 0.000000 0.000000 0.000000 -0.000000 -0.000000 -0.000000 0.000000 0.000000 0.000000 -0.000000 -0.000000 -0.000000 0.000000 0.000000 0.000000 -0.000000 -0.000000 -0.000000 0.000000 0.000000 0.000000 -0.000000 -0.000000 -0.000000 0.000000 0.000000 0.000000 -0.000000 -0.000000 -0.000000 0.000000 0.000000 0.000000 -0.000000 -0.000000 -0.000000 0.000000 0.000000 0.000000 -0.000000 -0.000000 -0.000000 0.000000 0.000000 0.000000 -0.000000 -0.000000 -0.000000 0.000000 0.000000 0.000000 -0.000000 -0.000000 -0.000000 0.000000 0.000000 0.000000 -0.000000 -0.000000 -0.000000 0.000000 0.000000 0.000000 -0.000000 -0.000000 -0.000000 0.000000 0.000000 0.000000 -0.000000 -0.000000 -0.000000 0.000000 0.000000 0.000000 -0.000000 -0.000000 -0.000000 0.000000 0.000000 0.000000 -0.000000 -0.000000 -0.000000 0.000000 0.000000 0.000000 -0.000000 -0.000000 -0.000000 0.000000 0.000000 0.000000 -0.000000 -0.000000 -0.000000 0.000000 0.000000 0.000000 -0.000000 -0.000000 -0.000000 0.000000 0.000000 0.000000 -0.000000 -0.000000 -0.000000 0.000000 0.000000 0.000000 -0.000000 -0.000000 -0.000000 0.000000 0.000000 0.000000 0.000000 -0.000000 -0.000000 0.000000 0.000000 0.000000 0.000000 -0.000000 0.000000 0.000000 0.000000 0.000000 0.000000 0.000000 0.000000 0.000000 0.000000 0.000000 0.000000 0.000000 0.000000 0.000000 0.000000 0.000000 0.000000 0.000000 0.000000 0.000000 0.000000 0.000000 0.000000 0.000000 0.000000 0.000000 0.000000 0.000000 0.000000 0.000000 0.000000 0.000000 0.000000 0.000000 0.000000 0.000000 0.000000 0.000000 0.000000 0.000000 0.000000 0.000000 0.000000 0.000000 0.000000 0.000000 0.000000 0.000000 0.000000 0.000000 0.000000 0.000000 0.000000 0.000000 0.000000 0.000000 0.000000 0.000000 0.000001 0.000001 0.000001 0.000001 0.000001 0.000001 0.000001 0.000001 0.000001 0.000001 0.000001 0.000001 0.000002 0.000002 0.000003 0.000003 0.000003 0.000003 0.000004 0.000005 0.000005 0.000005 0.000005 0.000005 0.000008 0.000008 0.000009 0.000009 0.000009 0.000009 0.000014 0.000015 0.000016 0.000016 0.000016 0.000016 0.000025 0.000026 0.000028 0.000028 0.000028 0.000028 0.000045 0.000047 0.000049 0.000049 0.000049 0.000049 0.000078 0.000081 0.000085 0.000085 0.000085 0.000085 0.000133 0.000139 0.000145 0.000146 0.000146 0.000146 0.000226 0.000234 0.000244 0.000246 0.000246 0.000246 0.000378 0.000392 0.000407 0.000410 0.000410 0.000410 0.000625 0.000646 0.000670 0.000675 0.000675 0.000675 0.001018 0.001051 0.001089 0.001096 0.001096 0.001096 0.001638 0.001688 0.001745 0.001756 0.001756 0.001756 0.002601 0.002675 0.002761 0.002777 0.002777 0.002777 0.004075 0.004184 0.004310 0.004333 0.004333 0.004333 0.006299 0.006456 0.006638 0.006671 0.006671 0.006671 0.009605 0.009828 0.010086 0.010133 0.010133 0.010133 0.014445 0.014756 0.015117 0.015182 0.015182 0.015182 0.021425 0.021853 0.022347 0.022436 0.022436 0.022436 0.031336 0.031911 0.032576 0.032695 0.032695 0.032695 0.045184 0.045943 0.046818 0.046976 0.046976 0.046976 0.064218 0.065200 0.066329 0.066532 0.066532 0.066532 0.089944 0.091185 0.092610 0.092866 0.092866 0.092866 0.124112 0.125643 0.127399 0.127714 0.127714 0.127714 0.168676 0.170515 0.172621 0.172999 0.172999 0.172999 0.225705 0.227850 0.230302 0.230741 0.230741 0.230741 0.297240 0.299656 0.302412 0.302905 0.302905 0.302905 0.385074 0.387685 0.390655 0.391185 0.391185 0.391185 0.490469 0.493142 0.496175 0.496715 0.496715 0.496715 0.613784 0.616323 0.619193 0.619703 0.619703 0.619703 0.754041 0.756180 0.758580 0.759005 0.759005 0.759005 0.908450 0.909849 0.911390 0.911661 0.911661 0.911661 1.071922 1.072173 1.072393 1.072425 1.072425 1.072425 1.236624 1.235268 1.233645 1.233347 1.233347 1.233347 1.391644 1.388201 1.384189 1.383463 1.383463 1.383463 1.522846 1.516848 1.509920 1.508672 1.508672 1.508672 1.612977 1.604022 1.593725 1.591874 1.591874 1.591874 1.642114 1.629920 1.615940 1.613433 1.613433 1.613433 1.588486 1.572953 1.555185 1.552002 1.552002 1.552002 1.429705 1.410972 1.389582 1.385754 1.385754 1.385754 1.144372 1.122863 1.098341 1.093956 1.093956 1.093956 0.713994 0.690447 0.663637 0.658847 0.658847 0.658847 0.125080 0.100546 0.072651 0.067670 0.067670 0.067670 -0.628757 -0.652938 -0.680397 -0.685296 -0.685296 -0.685296 -1.544894 -1.567162 -1.592412 -1.596913 -1.596913 -1.596913 -2.610229 -2.628898 -2.650026 -2.653788 -2.653788 -2.653788 -3.800355 -3.813736 -3.828828 -3.831510 -3.831510 -3.831510 -5.079558 -5.086099 -5.093402 -5.094691 -5.094691 -5.094691 -6.401756 -6.400191 -6.398271 -6.397914 -6.397914 -6.397914 -7.712408 -7.701888 -7.689790 -7.687616 -7.687616 -7.687616 -8.951311 -8.931516 -8.908883 -8.904829 -8.904829 -8.904829 -10.056118 -10.027329 -9.994484 -9.988608 -9.988608 -9.988608 -10.966302 -10.929436 -10.887417 -10.879903 -10.879903 -10.879903 -11.627249 -11.583849 -11.534392 -11.525550 -11.525550 -11.525550 -11.994098 -11.946302 -11.891802 -11.882055 -11.882055 -11.882055 -12.034939 -11.985488 -11.928974 -11.918855 -11.918855 -11.918855 -11.733008 -11.685385 -11.630621 -11.620782 -11.620782 -11.620782 -11.087420 -11.046366 -10.998296 -10.989573 -10.989573 -10.989573 -10.111816 -10.084788 -10.050802 -10.044409 -10.044409 -10.044409 -8.829687 -8.830618 -8.823686 -8.821661 -8.821661 -8.821661 -7.263205 -7.322717 -7.368265 -7.374314 -7.374314 -7.374314 -5.405712 -5.603877 -5.752032 -5.772006 -5.772006 -5.772006 -3.136985 -3.749775 -4.055045 -4.095055 -4.095055 -4.095055 22650.378517 22650.378517 22650.378517 22648.743446 23375.850417 29868.367142 33364.630505 32516.388904 29409.055215 25772.606414 26467.170959 23744.815719 21836.197475 19174.876709 17792.504904 14194.169292 12430.905572 12547.622344 9743.354365 7155.567583 6078.873259 5530.674920 3897.352781 3966.487370 6067.745071 6951.397701 5460.454334 8760.638219 4001.445264 4260.335336 4594.064009 4847.446795 2077.794902 4237.774543 6633.876668 -2981.250201 -1814.276023 2819.214172 3150.687010 2933.265122 3210.251506 3016.046506 -822.892692 -2254.505584 -525.039343 367.251586 947.153666 1696.886364 3483.719743 1809.717582 -3064.466783 -2536.447143 -1251.136588 -767.452615 -538.930874 -420.180559 -347.357188 -293.528986 -247.573600 -205.276572 -165.400555 -127.937918 -93.325580 -62.087080 -34.667640 -11.360291 7.721108 22.641486 33.626485 41.032749 45.311504 46.969849 46.533626 44.514931 41.386307 37.562619 33.390613 29.145412 25.032693 21.195024 17.720839 14.654655 12.007410 9.766071 7.901993 6.377737 5.152298 4.184821 3.436990 2.874328 2.466639 2.187830 2.015310 1.929149 1.911126 1.943766 2.009468 2.089723 2.164381 2.210770 2.202085 2.103666 1.863605 1.389427 0.437983 -0.873301 -1.775491 -2.262633 -2.350385 -2.350385 -2.350385 22469.860781 22469.860781 22469.860781 22489.898649 22452.362487 24242.321700 27501.427918 29070.712995 27644.340526 26887.647628 27125.601585 26724.945551 26707.025977 22815.661546 21016.075589 19314.391596 18179.611153 16545.437581 14117.749603 13112.465857 12702.890288 11650.725699 11435.224006 11569.024547 12388.196848 12513.918406 11905.041901 11885.047155 10310.164449 9439.588256 9886.696668 9564.866251 7591.503785 6053.305128 4817.019878 2930.332496 2935.870370 3540.597680 3301.108711 2923.074523 2647.643000 2124.083644 511.907373 -115.750795 313.585520 640.137172 898.044980 1181.534860 1471.944793 764.272021 -832.699100 -976.824774 -746.246347 -555.119995 -446.398520 -378.799385 -328.618625 -285.002617 -243.742032 -203.658942 -164.865644 -127.958547 -93.645979 -62.573759 -35.242695 -11.972042 7.110538 22.061027 33.097798 40.570781 44.924857 46.661347 46.301159 44.352523 41.285296 37.512815 33.381332 29.166326 25.074438 21.249590 17.781746 14.716966 12.067617 9.821905 7.952191 6.421806 5.190289 4.217133 3.464208 2.897098 2.485577 2.203462 2.028040 1.939250 1.918753 1.949008 2.012439 2.090754 2.164421 2.212246 2.210828 2.133390 1.947163 1.609443 1.091543 0.452366 -0.139587 -0.517957 -0.588105 -0.588105 -0.588105 22353.639092 22353.639092 22353.639092 22363.625063 22446.821922 22669.381651 23115.954504 23339.058843 23279.832228 23365.708717 23323.984202 23219.515602 22957.357271 22366.458475 21701.373283 20919.703484 20240.120424 19543.007549 18725.915431 18015.218550 17473.966503 17006.395564 16590.564238 16201.789150 15803.145067 15242.132664 14474.302295 13649.264338 12704.513287 11805.331984 11033.472457 10116.694088 8870.695262 7545.805012 6354.402644 5345.393563 4620.680222 4028.420941 3457.254099 2945.919897 2483.483010 1983.605918 1441.087124 1060.478290 909.313618 872.259723 863.494336 838.102758 721.662414 416.695059 13.172027 -245.826759 -344.715770 -368.433239 -361.550430 -340.354482 -311.111175 -277.012701 -240.154861 -202.167414 -164.414554 -128.052956 -94.042408 -63.141893 -35.903693 -12.671564 6.413553 21.398583 32.494161 40.042840 44.482420 46.307715 46.034048 44.165254 41.168115 37.454203 33.369181 29.188895 25.121062 21.311122 17.850767 14.787806 12.136230 9.885657 8.009603 6.472279 5.233853 4.254221 3.495471 2.923263 2.507339 2.221418 2.042649 1.950821 1.927459 1.954934 2.015675 2.091585 2.163703 2.212216 2.216877 2.157979 2.018249 1.786923 1.468195 1.091322 0.698573 0.410105 0.348512 0.348512 0.348512 22335.084870 22335.084870 22335.084870 22341.893946 22404.754826 22521.169549 22595.313468 22653.501242 22699.346476 22723.332200 22691.540217 22586.185902 22395.995312 22035.591966 21507.996849 20930.130940 20389.359472 19833.434099 19203.612481 18605.654026 18105.810089 17664.174160 17230.461475 16760.782428 16227.747696 15574.694078 14787.999323 13924.289643 12997.507702 12074.143266 11177.248101 10175.824256 8986.107088 7734.759818 6580.600950 5593.399206 4784.903393 4094.379008 3483.759234 2953.072611 2473.478570 1996.560447 1533.849670 1184.073401 992.327757 906.409114 859.133032 794.233054 652.173391 393.907010 80.807471 -159.600598 -289.115807 -340.237100 -348.408150 -334.345079 -308.363607 -275.755958 -239.591014 -201.935731 -164.349651 -128.076872 -94.116386 -63.244802 -36.022426 -12.796859 6.288827 21.280053 32.386123 39.948300 44.403132 46.244278 45.986066 44.131547 41.146951 37.443531 33.366844 29.192798 25.129298 21.322054 17.863066 14.800453 12.148497 9.897068 8.019888 6.481329 5.241670 4.260879 3.501086 2.927963 2.511249 2.224643 2.045272 1.952896 1.929017 1.955988 2.016239 2.091699 2.163498 2.212040 2.217568 2.161457 2.028656 1.812003 1.518274 1.171908 0.803261 0.529680 0.473484 0.473484 0.473484 22335.084870 22335.084870 22335.084870 22341.893946 22404.754826 22521.169549 22595.313468 22653.501242 22699.346476 22723.332200 22691.540217 22586.185902 22395.995312 22035.591966 21507.996849 20930.130940 20389.359472 19833.434099 19203.612481 18605.654026 18105.810089 17664.174160 17230.461475 16760.782428 16227.747696 15574.694078 14787.999323 13924.289643 12997.507702 12074.143266 11177.248101 10175.824256 8986.107088 7734.759818 6580.600950 5593.399206 4784.903393 4094.379008 3483.759234 2953.072611 2473.478570 1996.560447 1533.849670 1184.073401 992.327757 906.409114 859.133032 794.233054 652.173391 393.907010 80.807471 -159.600598 -289.115807 -340.237100 -348.408150 -334.345079 -308.363607 -275.755958 -239.591014 -201.935731 -164.349651 -128.076872 -94.116386 -63.244802 -36.022426 -12.796859 6.288827 21.280053 32.386123 39.948300 44.403132 46.244278 45.986066 44.131547 41.146951 37.443531 33.366844 29.192798 25.129298 21.322054 17.863066 14.800453 12.148497 9.897068 8.019888 6.481329 5.241670 4.260879 3.501086 2.927963 2.511249 2.224643 2.045272 1.952896 1.929017 1.955988 2.016239 2.091699 2.163498 2.212040 2.217568 2.161457 2.028656 1.812003 1.518274 1.171908 0.803261 0.529680 0.473484 0.473484 0.473484 22335.084870 22335.084870 22335.084870 22341.893946 22404.754826 22521.169549 22595.313468 22653.501242 22699.346476 22723.332200 22691.540217 22586.185902 22395.995312 22035.591966 21507.996849 20930.130940 20389.359472 19833.434099 19203.612481 18605.654026 18105.810089 17664.174160 17230.461475 16760.782428 16227.747696 15574.694078 14787.999323 13924.289643 12997.507702 12074.143266 11177.248101 10175.824256 8986.107088 7734.759818 6580.600950 5593.399206 4784.903393 4094.379008 3483.759234 2953.072611 2473.478570 1996.560447 1533.849670 1184.073401 992.327757 906.409114 859.133032 794.233054 652.173391 393.907010 80.807471 -159.600598 -289.115807 -340.237100 -348.408150 -334.345079 -308.363607 -275.755958 -239.591014 -201.935731 -164.349651 -128.076872 -94.116386 -63.244802 -36.022426 -12.796859 6.288827 21.280053 32.386123 39.948300 44.403132 46.244278 45.986066 44.131547 41.146951 37.443531 33.366844 29.192798 25.129298 21.322054 17.863066 14.800453 12.148497 9.897068 8.019888 6.481329 5.241670 4.260879 3.501086 2.927963 2.511249 2.224643 2.045272 1.952896 1.929017 1.955988 2.016239 2.091699 2.163498 2.212040 2.217568 2.161457 2.028656 1.812003 1.518274 1.171908 0.803261 0.529680 0.473484 0.473484 0.473484 13145.819604 13145.819604 13145.819604 13137.247650 12904.201473 12694.275138 13147.058862 11724.486165 10503.393777 11484.457933 12513.215893 11483.407606 11013.620533 9508.685882 8541.320636 8594.395232 6920.553456 6618.533925 5741.476357 4784.149599 3558.902021 1612.734973 1611.385284 -1277.986574 -3874.904801 -2346.479072 -1393.809246 -739.231927 -217.840328 277.157640 902.175057 1560.765566 54.889512 -1499.798354 -892.792828 -218.856804 406.228238 1215.935575 681.024695 -1114.902506 -1021.237795 -300.270950 417.656453 758.846855 -878.629327 -1670.200871 -757.232801 -216.090793 -1602.881696 -2609.611042 -2152.765215 -1832.417444 -1651.401708 -1533.419599 -1450.766022 -1389.904260 13266.678263 13266.678263 13266.678263 13245.673775 12374.182506 11855.997922 11478.872936 15441.302560 12166.550981 12047.833888 11470.112075 11423.190085 13571.520556 14699.766983 12021.377831 13065.630191 14911.493089 12763.764334 14983.462471 14631.385659 12892.357774 13252.581382 14333.377720 13266.372842 12801.975040 15279.266504 15224.796965 13532.467182 10773.702218 12250.080685 11919.847952 15318.207128 12860.759091 13359.964860 14468.852582 13987.750575 11549.377908 12456.589361 14003.996831 13294.133274 12870.773870 13414.860773 11103.077445 13397.301012 13753.181800 13458.198501 12934.135620 13416.630713 13214.137715 12919.586620 14323.792199 13728.238567 14128.258063 4962.122618 43.888611 -223.603971 13477.939106 13477.939106 13477.939106 13460.389948 12888.708325 12892.373796 11931.406781 10502.662444 11519.125289 12378.688387 12596.765763 11969.227408 12067.799907 11732.315533 10326.879570 11572.589195 13397.962914 14212.410241 13512.940339 12137.506244 13716.064377 13672.366550 12131.070488 13049.176391 12850.942559 11879.863458 12940.858999 14030.588448 13132.454165 16224.824608 12039.316004 12551.685208 14472.676430 15325.224687 11432.947370 12546.706887 11394.441250 12778.810532 13471.620478 14431.954550 16258.116280 14579.137855 13304.551997 13504.407326 14029.472252 13742.561532 12055.939658 11739.267709 13110.344019 13279.813197 14384.362310 14435.502126 5625.535005 9699.737384 -38.842489 54.399796 13645.078831 13645.078831 13645.078831 13699.050006 13672.912345 13846.952630 14034.084203 14067.335389 10170.800851 12309.650866 9535.912915 10333.093396 11392.105533 13027.667304 13142.530929 12781.750469 13693.632605 13377.526809 13556.306311 13387.405140 13553.550472 12286.696188 13662.977013 13207.208292 13279.343758 13363.943217 12259.555528 12938.579923 14570.420337 13566.155083 13338.595292 11226.420534 13586.419036 14349.578501 12981.523314 13963.918776 15319.332898 12381.909175 13595.826496 13639.738180 15171.547212 13456.030865 14318.106643 13580.450551 13524.049046 13509.708065 13711.670100 14293.059761 12731.392496 13011.518144 11921.453581 12615.658678 1149.724718 12072.944227 2997.714439 4203.045334 13795.069084 13795.069084 13795.069084 13779.257231 13314.8550