<VTKFile type="PolyData">
<PolyData>
<Piece NumberOfPoints="8632" NumberOfVerts="8632" NumberOfLines="0" NumberOfStrips="0" NumberOfPolys="0">
<PointData>
<DataArray type="Float64" Name="Pressure" format="ascii">
 13015.129134 13015.129134 13015.129134 13011.611014 12972.590223 12874.163229 12760.674033 12611.480953 12389.454800 12056.395429 11608.747976 11099.103378 10585.917211 10084.353151 9575.525284 9033.598066 8440.743213 7790.992120 7099.897866 6388.169619 5658.624799 4902.123849 4123.535754 3325.276469 2489.670098 1679.276244 1040.239260 635.452854 421.733385 326.412202 279.242884 212.381033 89.801070 -39.493110 -98.421293 -81.898925 -34.135618 -13.581412 -71.257989 -184.216301 -260.756248 -279.267791 -290.972539 -361.082162 -512.249875 -677.405986 -805.963311 -941.155011 -1125.802871 -1307.909246 -1420.023449 -1460.937708 -1456.725945 -1427.166435 -1383.066457 -1329.819821 -1270.419424 -1207.394901 -1143.101989 -1079.108771 -1016.270995 -955.057185 -895.733784 -838.459161 -783.330400 -730.407790 -679.728229 -631.312645 -585.170029 -541.299461 -499.691022 -460.326142 -423.177729 -388.210308 -355.380274 -324.636311 -295.919984 -269.166467 -244.305381 -221.261693 -199.956641 -180.308654 -162.234222 -145.648733 -130.467222 -116.605058 -103.978551 -92.505477 -82.105533 -72.700718 -64.215649 -56.577807 -49.717733 -43.569167 -38.069136 -33.158000 -28.779465 -24.880556 -21.411595 -18.326192 -15.581355 -13.137931 -10.961879 -9.027363 -7.322401 -5.848969 -4.585465 -3.776492 -3.624116 -3.624116 -3.624116 13015.129134 13015.129134 13015.129134 13011.611014 12972.590223 12874.163229 12760.674033 12611.480953 12389.454800 12056.395429 11608.747976 11099.103378 10585.917211 10084.353151 9575.525284 9033.598066 8440.743213 7790.992120 7099.897866 6388.169619 5658.624799 4902.123849 4123.535754 3325.276469 2489.670098 1679.276244 1040.239260 635.452854 421.733385 326.412202 279.242884 212.381033 89.801070 -39.493110 -98.421293 -81.898925 -34.135618 -13.581412 -71.257989 -184.216301 -260.756248 -279.267791 -290.972539 -361.082162 -512.249875 -677.405986 -805.963311 -941.155011 -1125.802871 -1307.909246 -1420.023449 -1460.937708 -1456.725945 -1427.166435 -1383.066457 -1329.819821 -1270.419424 -1207.394901 -1143.101989 -1079.108771 -1016.270995 -955.057185 -895.733784 -838.459161 -783.330400 -730.407790 -679.728229 -631.312645 -585.170029 -541.299461 -499.691022 -460.326142 -423.177729 -388.210308 -355.380274 -324.636311 -295.919984 -269.166467 -244.305381 -221.261693 -199.956641 -180.308654 -162.234222 -145.648733 -130.467222 -116.605058 -103.978551 -92.505477 -82.105533 -72.700718 -64.215649 -56.577807 -49.717733 -43.569167 -38.069136 -33.158000 -28.779465 -24.880556 -21.411595 -18.326192 -15.581355 -13.137931 -10.961879 -9.027363 -7.322401 -5.848969 -4.585465 -3.776492 -3.624116 -3.624116 -3.624116 13015.129134 13015.129134 13015.129134 13011.611014 12972.590223 12874.163229 12760.674033 12611.480953 12389.454800 12056.395429 11608.747976 11099.103378 10585.917211 10084.353151 9575.525284 9033.598066 8440.743213 7790.992120 7099.897866 6388.169619 5658.624799 4902.123849 4123.535754 3325.276469 2489.670098 1679.276244 1040.239260 635.452854 421.733385 326.412202 279.242884 212.381033 89.801070 -39.493110 -98.421293 -81.898925 -34.135618 -13.581412 -71.257989 -184.216301 -260.756248 -279.267791 -290.972539 -361.082162 -512.249875 -677.405986 -805.963311 -941.155011 -1125.802871 -1307.909246 -1420.023449 -1460.937708 -1456.725945 -1427.166435 -1383.066457 -1329.819821 -1270.419424 -1207.394901 -1143.101989 -1079.108771 -1016.270995 -955.057185 -895.733784 -838.459161 -783.330400 -730.407790 -679.728229 -631.312645 -585.170029 -541.299461 -499.691022 -460.326142 -423.177729 -388.210308 -355.380274 -324.636311 -295.919984 -269.166467 -244.305381 -221.261693 -199.956641 -180.308654 -162.234222 -145.648733 -130.467222 -116.605058 -103.978551 -92.505477 -82.105533 -72.700718 -64.215649 -56.577807 -49.717733 -43.569167 -38.069136 -33.158000 -28.779465 -24.880556 -21.411595 -18.326192 -15.581355 -13.137931 -10.961879 -9.027363 -7.322401 -5.848969 -4.585465 -3.776492 -3.624116 -3.624116 -3.624116 13020.734735 13020.734735 13020.734735 13017.306246 12979.386163 12884.484967 12775.533612 12636.806764 12424.461923 12090.567310 11617.049676 11081.924167 10566.293920 10077.564222 9582.664384 9046.270505 8453.368353 7791.728637 7084.817195 6362.995346 5630.242440 4866.251036 4078.855244 3285.319673 2419.640406 1552.887916 912.146114 542.897080 368.230499 305.099636 284.923136 232.068206 91.696661 -65.224037 -123.761121 -90.371627 -22.212686 15.082892 -44.411149 -202.999254 -280.518619 -281.258459 -271.340202 -331.494898 -516.467516 -695.096047 -805.458351 -927.815919 -1147.039499 -1341.693918 -1444.923609 -1475.715514 -1464.901957 -1431.745906 -1385.909914 -1331.843966 -1271.742158 -1208.073168 -1143.383995 -1079.209498 -1016.294486 -955.048380 -895.711365 -838.430883 -783.299531 -730.375754 -679.695681 -631.279923 -585.137336 -541.266948 -499.658818 -460.294369 -423.146504 -388.179744 -355.350476 -324.607378 -295.892004 -269.139515 -244.279519 -221.236971 -199.933097 -180.286310 -162.213094 -145.628822 -130.448521 -116.587552 -103.962217 -92.490287 -82.091452 -72.687709 -64.203670 -56.566813 -49.707679 -43.560005 -38.060816 -33.150473 -28.772676 -24.874440 -21.406058 -18.321065 -15.576280 -13.132072 -10.953298 -9.012073 -7.296590 -5.816237 -4.559152 -3.756118 -3.605112 -3.605112 -3.605112 13082.445709 13082.445709 13082.445709 13082.038997 13075.783983 13028.570018 12964.725823 12942.008602 12871.606384 12572.447712 11740.914952 10865.230466 10351.919487 10050.357894 9707.184424 9196.323017 8592.280969 7749.295015 6807.299239 5945.269972 5194.080092 4313.506346 3429.835278 2832.046899 1574.017829 -98.690948 -676.906989 -504.236190 -214.947154 80.592981 379.826433 600.439909 157.588670 -511.041330 -451.206169 -193.613376 114.689885 459.410425 335.691740 -513.164162 -595.810408 -305.823487 -13.340055 130.397175 -580.971040 -1053.785949 -791.678502 -668.597031 -1362.848764 -1873.750565 -1742.743949 -1640.798730 -1553.856863 -1481.361968 -1417.219456 -1356.013816 -1287.861250 -1215.090026 -1146.196009 -1080.189304 -1016.515395 -954.954286 -895.484687 -838.147107 -782.990478 -730.055287 -679.370211 -630.952752 -584.810477 -540.941890 -499.336853 -459.976710 -422.834325 -387.874173 -355.052577 -324.318130 -295.612280 -268.870069 -244.020979 -220.989834 -199.697731 -180.062960 -162.001889 -145.429787 -130.261587 -116.412567 -103.798954 -92.338457 -81.950717 -72.557686 -64.083942 -56.456938 -49.607194 -43.468435 -37.977674 -33.075253 -28.704834 -24.813330 -21.350758 -18.269931 -15.525803 -13.074003 -10.867667 -8.853065 -6.976811 -5.386156 -4.234345 -3.523611 -3.397084 -3.397084 -3.397084 13172.837234 13172.837234 13172.837234 13182.106408 13324.958137 13466.288351 13101.808012 13503.637008 13366.127071 13733.850371 11929.138507 10362.442400 10164.445222 10282.176115 10175.283474 9216.912562 8870.871475 7509.047268 6039.561956 4690.350548 4246.988076 3141.610457 1262.233950 3056.880858 507.487714 -4083.568433 -2905.601428 -1775.790146 -899.561513 -172.833217 580.021784 1426.847741 332.852294 -1413.232730 -1002.865545 -326.446758 287.400766 1099.013184 827.520423 -990.824209 -1068.241386 -335.419708 370.420358 860.926239 -607.071097 -1602.342463 -760.546096 -76.710834 -1317.382650 -2496.731832 -2143.817250 -1838.805885 -1658.865295 -1539.633623 -1455.021106 -1391.087265 -1318.186129 -1227.356589 -1150.626384 -1081.758472 -1016.942139 -954.916319 -895.254122 -837.835094 -782.643207 -729.692479 -679.000713 -630.580926 -584.438847 -540.572244 -498.970696 -459.615440 -422.479286 -387.526652 -354.713791 -323.989194 -295.294190 -268.563685 -243.727013 -220.708851 -199.430147 -179.809054 -161.761806 -145.203555 -130.049124 -116.213696 -103.613418 -92.165927 -81.790805 -72.409955 -63.947918 -56.332116 -49.493048 -43.364421 -37.883232 -32.989800 -28.627724 -24.743761 -21.287512 -18.210700 -15.465456 -13.000056 -10.747938 -8.598345 -6.289881 -4.594735 -3.726053 -3.204809 -3.109379 -3.109379 -3.109379 -4.268563 -3.518637 -3.123117 -3.069641 -3.069641 -3.069641 -3.526006 -3.102285 -2.836390 -2.800015 -2.800015 -2.800015 -2.667745 -2.524090 -2.405951 -2.389267 -2.389267 -2.389267 -2.122379 -2.069214 -2.023363 -2.016590 -2.016590 -2.016590 -1.725742 -1.707687 -1.692645 -1.690507 -1.690507 -1.690507 -1.417399 -1.413176 -1.410628 -1.410400 -1.410400 -1.410400 -1.168642 -1.169702 -1.171876 -1.172362 -1.172362 -1.172362 -0.964195 -0.967048 -0.970726 -0.971426 -0.971426 -0.971426 -0.794762 -0.798002 -0.801892 -0.802607 -0.802607 -0.802607 -0.653938 -0.657025 -0.660642 -0.661299 -0.661299 -0.661299 -0.536883 -0.539634 -0.542825 -0.543401 -0.543401 -0.543401 -0.439714 -0.442092 -0.444837 -0.445331 -0.445331 -0.445331 -0.359218 -0.361240 -0.363570 -0.363989 -0.363989 -0.363989 -0.292695 -0.294399 -0.296360 -0.296713 -0.296713 -0.296713 -0.237863 -0.239290 -0.240932 -0.241228 -0.241228 -0.241228 -0.192789 -0.193979 -0.195348 -0.195594 -0.195594 -0.195594 -0.155838 -0.156827 -0.157965 -0.158169 -0.158169 -0.158169 -0.125632 -0.126451 -0.127392 -0.127562 -0.127562 -0.127562 -0.101007 -0.101683 -0.102461 -0.102600 -0.102600 -0.102600 -0.080990 -0.081546 -0.082186 -0.082301 -0.082301 -0.082301 -0.064764 -0.065220 -0.065745 -0.065839 -0.065839 -0.065839 -0.051648 -0.052021 -0.052450 -0.052527 -0.052527 -0.052527 -0.041076 -0.041380 -0.041730 -0.041793 -0.041793 -0.041793 -0.032579 -0.032826 -0.033111 -0.033162 -0.033162 -0.033162 -0.025769 -0.025969 -0.026200 -0.026242 -0.026242 -0.026242 -0.020326 -0.020488 -0.020675 -0.020709 -0.020709 -0.020709 -0.015990 -0.016120 -0.016270 -0.016297 -0.016297 -0.016297 -0.012543 -0.012648 -0.012769 -0.012791 -0.012791 -0.012791 -0.009813 -0.009897 -0.009994 -0.010011 -0.010011 -0.010011 -0.007656 -0.007723 -0.007800 -0.007814 -0.007814 -0.007814 -0.005956 -0.006009 -0.006071 -0.006082 -0.006082 -0.006082 -0.004621 -0.004663 -0.004712 -0.004721 -0.004721 -0.004721 -0.003575 -0.003609 -0.003647 -0.003654 -0.003654 -0.003654 -0.002759 -0.002785 -0.002815 -0.002821 -0.002821 -0.002821 -0.002122 -0.002143 -0.002167 -0.002172 -0.002172 -0.002172 -0.001628 -0.001645 -0.001664 -0.001667 -0.001667 -0.001667 -0.001246 -0.001259 -0.001273 -0.001276 -0.001276 -0.001276 -0.000951 -0.000961 -0.000972 -0.000974 -0.000974 -0.000974 -0.000723 -0.000731 -0.000740 -0.000742 -0.000742 -0.000742 -0.000549 -0.000555 -0.000562 -0.000563 -0.000563 -0.000563 -0.000415 -0.000420 -0.000425 -0.000426 -0.000426 -0.000426 -0.000313 -0.000317 -0.000321 -0.000322 -0.000322 -0.000322 -0.000236 -0.000239 -0.000242 -0.000242 -0.000242 -0.000242 -0.000177 -0.000179 -0.000181 -0.000182 -0.000182 -0.000182 -0.000132 -0.000134 -0.000136 -0.000136 -0.000136 -0.000136 -0.000099 -0.000100 -0.000101 -0.000102 -0.000102 -0.000102 -0.000073 -0.000074 -0.000075 -0.000076 -0.000076 -0.000076 -0.000055 -0.000055 -0.000056 -0.000056 -0.000056 -0.000056 -0.000040 -0.000041 -0.000041 -0.000042 -0.000042 -0.000042 -0.000030 -0.000030 -0.000031 -0.000031 -0.000031 -0.000031 -0.000022 -0.000022 -0.000023 -0.000023 -0.000023 -0.000023 -0.000016 -0.000016 -0.000017 -0.000017 -0.000017 -0.000017 -0.000012 -0.000012 -0.000012 -0.000012 -0.000012 -0.000012 -0.000009 -0.000009 -0.000009 -0.000009 -0.000009 -0.000009 -0.000006 -0.000006 -0.000006 -0.000006 -0.000006 -0.000006 -0.000005 -0.000005 -0.000005 -0.000005 -0.000005 -0.000005 -0.000003 -0.000003 -0.000003 -0.000003 -0.000003 -0.000003 -0.000002 -0.000002 -0.000002 -0.000002 -0.000002 -0.000002 -0.000002 -0.000002 -0.000002 -0.000002 -0.000002 -0.000002 -0.000001 -0.000001 -0.000001 -0.000001 -0.000001 -0.000001 -0.000001 -0.000001 -0.000001 -0.000001 -0.000001 -0.000001 -0.000001 -0.000001 -0.000001 -0.000001 -0.000001 -0.000001 -0.000000 -0.000000 -0.000000 -0.000000 -0.000000 -0.000000 -0.000000 -0.000000 -0.000000 -0.000000 -0.000000 -0.000000 -0.000000 -0.000000 -0.000000 -0.000000 -0.000000 -0.000000 -0.000000 -0.000000 -0.000000 -0.000000 -0.000000 -0.000000 -0.000000 -0.000000 -0.000000 -0.000000 -0.000000 -0.000000 -0.000000 -0.000000 -0.000000 -0.000000 -0.000000 -0.000000 -0.000000 -0.000000 -0.000000 -0.000000 -0.000000 -0.000000 -0.000000 -0.000000 -0.000000 -0.000000 -0.000000 -0.000000 -0.000000 -0.000000 -0.000000 -0.000000 -0.000000 -0.000000 -0.000000 -0.000000 -0.000000 -0.000000 -0.000000 -0.000000 -0.000000 -0.000000 -0.000000 -0.000000 -0.000000 -0.000000 -0.000000 -0.000000 -0.000000 -0.000000 -0.000000 -0.000000 -0.000000 -0.000000 -0.000000 -0.000000 -0.000000 -0.000000 -0.000000 -0.000000 -0.000000 -0.000000 -0.000000 -0.000000 -0.000000 -0.000000 -0.000000 -0.000000 -0.000000 -0.000000 -0.000000 -0.000000 -0.000000 -0.000000 -0.000000 -0.000000 -0.000000 -0.000000 -0.000000 -0.000000 -0.000000 -0.000000 -0.000000 -0.000000 -0.000000 -0.000000 -0.000000 -0.000000 -0.000000 -0.000000 -0.000000 0.000000 0.000000 0.000000 -0.000000 -0.000000 -0.000000 0.000000 0.000000 0.000000 -0.000000 -0.000000 -0.000000 0.000000 0.000000 0.000000 -0.000000 -0.000000 -0.000000 0.000000 0.000000 0.000000 -0.000000 -0.000000 -0.000000 0.000000 0.000000 0.000000 -0.000000 -0.000000 -0.000000 0.000000 0.000000 0.000000 -0.000000 -0.000000 -0.000000 0.000000 0.000000 0.000000 -0.000000 -0.000000 -0.000000 0.000000 0.000000 0.000000 -0.000000 -0.000000 -0.000000 0.000000 0.000000 0.000000 -0.000000 -0.000000 -0.000000 0.000000 0.000000 0.000000 -0.000000 -0.000000 -0.000000 0.000000 0.000000 0.000000 -0.000000 -0.000000 -0.000000 0.000000 0.000000 0.000000 -0.000000 -0.000000 -0.000000 0.000000 0.000000 0.000000 -0.000000 -0.000000 -0.000000 0.000000 0.000000 0.000000 -0.000000 -0.000000 -0.000000 0.000000 0.000000 0.000000 -0.000000 -0.000000 -0.000000 0.000000 0.000000 0.000000 -0.000000 -0.000000 -0.000000 0.000000 0.000000 0.000000 -0.000000 -0.000000 -0.000000 0.000000 0.000000 0.000000 -0.000000 -0.000000 -0.000000 0.000000 0.000000 0.000000 -0.000000 -0.000000 -0.000000 0.000000 0.000000 0.000000 -0.000000 -0.000000 -0.000000 0.000000 0.000000 0.000000 -0.000000 -0.000000 -0.000000 0.000000 0.000000 0.000000 -0.000000 -0.000000 -0.000000 0.000000 0.000000 0.000000 -0.000000 -0.000000 -0.000000 0.000000 0.000000 0.000000 -0.000000 -0.000000 -0.000000 0.000000 0.000000 0.000000 -0.000000 -0.000000 -0.000000 0.000000 0.000000 0.000000 -0.000000 -0.000000 -0.000000 0.000000 0.000000 0.000000 -0.000000 -0.000000 -0.000000 0.000000 0.000000 0.000000 -0.000000 -0.000000 -0.000000 0.000000 0.000000 0.000000 -0.000000 -0.000000 -0.000000 0.000000 0.000000 0.000000 -0.000000 -0.000000 -0.000000 0.000000 0.000000 0.000000 -0.000000 -0.000000 -0.000000 0.000000 0.000000 0.000000 -0.000000 -0.000000 -0.000000 0.000000 0.000000 0.000000 -0.000000 -0.000000 -0.000000 0.000000 0.000000 0.000000 -0.000000 -0.000000 -0.000000 0.000000 0.000000 0.000000 -0.000000 -0.000000 -0.000000 0.000000 0.000000 0.000000 -0.000000 -0.000000 -0.000000 0.000000 0.000000 0.000000 -0.000000 -0.000000 -0.000000 0.000000 0.000000 0.000000 -0.000000 -0.000000 -0.000000 0.000000 0.000000 0.000000 -0.000000 -0.000000 -0.000000 0.000000 0.000000 0.000000 -0.000000 -0.000000 -0.000000 0.000000 0.000000 0.000000 -0.000000 -0.000000 -0.000000 0.000000 0.000000 0.000000 -0.000000 -0.000000 -0.000000 0.000000 0.000000 0.000000 -0.000000 -0.000000 -0.000000 0.000000 0.000000 0.000000 -0.000000 -0.000000 -0.000000 0.000000 0.000000 0.000000 -0.000000 -0.000000 -0.000000 0.000000 0.000000 0.000000 -0.000000 -0.000000 -0.000000 0.000000 0.000000 0.000000 0.000000 -0.000000 -0.000000 0.000000 0.000000 0.000000 0.000000 0.000000 0.000000 0.000000 0.000000 0.000000 0.000000 0.000000 0.000000 0.000000 0.000000 0.000000 0.000000 0.000000 0.000000 0.000000 0.000000 0.000000 0.000000 0.000000 0.000000 0.000000 0.000000 0.000000 0.000000 0.000000 0.000000 0.000000 0.000000 0.000000 0.000000 0.000000 0.000000 0.000000 0.000000 0.000000 0.000000 0.000000 0.000000 0.000000 0.000000 0.000000 0.000000 0.000000 0.000000 0.000000 0.000000 0.000000 0.000000 0.000000 0.000000 0.000000 0.000000 0.000000 0.000001 0.000001 0.000001 0.000001 0.000001 0.000001 0.000001 0.000001 0.000001 0.000001 0.000001 0.000001 0.000002 0.000002 0.000002 0.000002 0.000002 0.000002 0.000004 0.000004 0.000004 0.000004 0.000004 0.000004 0.000007 0.000008 0.000008 0.000008 0.000008 0.000008 0.000014 0.000014 0.000015 0.000016 0.000016 0.000016 0.000025 0.000027 0.000028 0.000028 0.000028 0.000028 0.000046 0.000048 0.000051 0.000051 0.000051 0.000051 0.000082 0.000086 0.000090 0.000091 0.000091 0.000091 0.000144 0.000151 0.000158 0.000159 0.000159 0.000159 0.000251 0.000261 0.000274 0.000276 0.000276 0.000276 0.000430 0.000447 0.000467 0.000470 0.000470 0.000470 0.000727 0.000754 0.000786 0.000791 0.000791 0.000791 0.001211 0.001254 0.001303 0.001312 0.001312 0.001312 0.001989 0.002054 0.002131 0.002144 0.002144 0.002144 0.003220 0.003319 0.003434 0.003455 0.003455 0.003455 0.005136 0.005283 0.005455 0.005486 0.005486 0.005486 0.008073 0.008289 0.008540 0.008585 0.008585 0.008585 0.012501 0.012812 0.013173 0.013238 0.013238 0.013238 0.019071 0.019510 0.020018 0.020109 0.020109 0.020109 0.028655 0.029262 0.029963 0.030090 0.030090 0.030090 0.042399 0.043221 0.044169 0.044340 0.044340 0.044340 0.061766 0.062854 0.064109 0.064334 0.064334 0.064334 0.088566 0.089975 0.091596 0.091888 0.091888 0.091888 0.124970 0.126748 0.128791 0.129158 0.129158 0.129158 0.173469 0.175654 0.178158 0.178607 0.178607 0.178607 0.236791 0.239394 0.242370 0.242904 0.242904 0.242904 0.317728 0.320722 0.324137 0.324748 0.324748 0.324748 0.418871 0.422173 0.425930 0.426602 0.426602 0.426602 0.542233 0.545687 0.549607 0.550306 0.550306 0.550306 0.688759 0.692121 0.695921 0.696597 0.696597 0.696597 0.857724 0.860650 0.863935 0.864517 0.864517 0.864517 1.046063 1.048103 1.050359 1.050755 1.050755 1.050755 1.247671 1.248279 1.248882 1.248981 1.248981 1.248981 1.452758 1.451310 1.449555 1.449230 1.449230 1.449230 1.647355 1.643193 1.638334 1.637453 1.637453 1.637453 1.813091 1.805581 1.796900 1.795336 1.795336 1.795336 1.927363 1.915964 1.902856 1.900501 1.900501 1.900501 1.963993 1.948346 1.930415 1.927199 1.927199 1.927199 1.894468 1.874486 1.851643 1.847552 1.847552 1.847552 1.689768 1.665718 1.638279 1.633370 1.633370 1.633370 1.322747 1.295314 1.264065 1.258480 1.258480 1.258480 0.770927 0.741239 0.707475 0.701445 0.701445 0.701445 0.019480 -0.010896 -0.045392 -0.051547 -0.051547 -0.051547 -0.935869 -0.964995 -0.998023 -1.003911 -1.003911 -1.003911 -2.086380 -2.112064 -2.141136 -2.146314 -2.146314 -2.146314 -3.408617 -3.428574 -3.451104 -3.455109 -3.455109 -3.455109 -4.863856 -4.875906 -4.889429 -4.891825 -4.891825 -4.891825 -6.398814 -6.401097 -6.403512 -6.403924 -6.403924 -6.403924 -7.947798 -7.938976 -7.928777 -7.926938 -7.926938 -7.926938 -9.436204 -9.415638 -9.392107 -9.387890 -9.387890 -9.387890 -10.785158 -10.753023 -10.716364 -10.709806 -10.709806 -10.709806 -11.916898 -11.874239 -11.825637 -11.816949 -11.816949 -11.816949 -12.760422 -12.709143 -12.650741 -12.640303 -12.640303 -12.640303 -13.256838 -13.199640 -13.134465 -13.122813 -13.122813 -13.122813 -13.363834 -13.304176 -13.236061 -13.223871 -13.223871 -13.223871 -13.058741 -13.000935 -12.934566 -12.922652 -12.922652 -12.922652 -12.339629 -12.289350 -12.230683 -12.220058 -12.220058 -12.220058 -11.223731 -11.189550 -11.147144 -11.139219 -11.139219 -11.139219 -9.741870 -9.739347 -9.727739 -9.724807 -9.724807 -9.724807 -7.925535 -7.988399 -8.035602 -8.041746 -8.041746 -8.041746 -5.775823 -5.992095 -6.152914 -6.174492 -6.174492 -6.174492 -3.170044 -3.843349 -4.175760 -4.219220 -4.219220 -4.219220 22569.584192 22569.584192 22569.584192 22444.031131 21317.960763 19576.226990 19664.845433 22320.407831 22779.088529 23240.326407 24492.415118 25162.684083 24496.172249 28636.134860 26543.356959 27364.781824 22945.245273 19238.464660 23687.019850 23015.493260 17355.776412 15687.255116 17200.751055 15261.769664 18198.700668 20432.896537 16671.642371 25094.439609 24271.030155 32017.593314 32577.560565 25599.458665 17269.356932 23807.938713 17028.627912 4688.770364 1210.963972 1048.401972 239.054205 1024.706084 2198.389339 3353.253897 241.720461 -2641.632560 -1075.426928 101.362909 731.094925 1343.823984 2674.474463 3134.117919 -1643.087551 -3051.805677 -1503.418750 -895.634775 -610.258715 -461.182874 -370.750064 -305.746868 -252.014217 -203.853656 -159.334677 -118.161525 -80.681330 -47.409446 -18.796235 4.885305 23.583987 37.471901 46.917300 52.439614 54.655802 54.225886 51.803833 47.997904 43.342554 38.282115 33.165123 28.247255 23.700445 19.625748 16.067831 13.029374 10.484217 8.388516 6.689627 5.332694 4.265151 3.439475 2.814521 2.355826 2.035167 1.829657 1.720556 1.691963 1.729499 1.819041 1.945577 2.092185 2.239059 2.362382 2.432382 2.409050 2.231473 1.791460 0.809837 -0.600396 -1.571990 -2.091708 -2.185307 -2.185307 -2.185307 22405.388771 22405.388771 22405.388771 22362.150934 22342.706567 23010.974647 22493.542551 22621.492644 24149.765937 23538.370003 23313.727420 23049.944864 21817.966299 23974.034798 22700.403932 21643.076216 19979.502610 19442.785084 21463.615711 20289.745088 17966.767025 16576.467635 17612.605294 17395.625222 17119.409557 16193.530192 15701.268480 16298.681661 16413.173243 19521.392343 19444.168243 18369.758236 16588.799294 15449.555111 12406.632819 6886.863698 3384.208917 2231.920503 1777.325323 1933.196157 2225.318376 2306.004378 952.306842 -189.782707 190.358104 549.687093 816.410797 1065.347997 1325.493749 1185.163514 -372.043667 -1047.501044 -826.531483 -615.689375 -486.820303 -405.348655 -345.293994 -294.161469 -246.833132 -201.676365 -158.604615 -118.157566 -81.058464 -47.990594 -19.479336 4.167437 22.879976 36.817810 46.338609 51.952042 54.266159 53.933323 51.601471 47.874655 43.284925 38.275807 33.196317 28.303523 23.771301 19.702878 16.145070 13.102513 10.550695 8.447087 6.740009 5.375263 4.300683 3.468933 2.838907 2.376071 2.052067 1.843830 1.732431 1.701787 1.737362 1.824933 1.949500 2.094368 2.240417 2.365501 2.443725 2.444069 2.327422 2.042147 1.550731 0.913338 0.317557 -0.061081 -0.131488 -0.131488 -0.131488 22300.045323 22300.045323 22300.045323 22293.646828 22279.701555 22450.835373 22378.220017 22353.805379 22639.088437 22431.900331 22173.576777 21844.106593 21472.760987 21236.619171 20831.076309 20265.868226 19686.184984 19228.750455 18991.142579 18642.436670 18078.638017 17549.254396 17209.040813 16874.721232 16437.632769 15867.343855 15225.103849 14628.367833 14069.861694 13608.077129 13032.315505 12358.272892 11534.465425 10264.708880 8510.907177 6629.364587 5010.643481 3868.751809 3172.117637 2773.356633 2492.852342 2153.457603 1666.575691 1225.686340 1005.937278 928.659702 896.380543 863.220988 775.118809 536.672770 140.689545 -185.492993 -332.559538 -375.197990 -374.760122 -353.692621 -321.571068 -283.333923 -242.000506 -199.678755 -157.990454 -118.250654 -81.531444 -48.671513 -20.265523 3.346231 22.076205 36.071201 45.677616 51.394407 53.819688 53.597205 51.368061 47.731506 43.216812 38.266541 33.230204 28.366412 23.851218 19.790297 16.232904 13.185892 10.626642 8.514119 6.797760 5.424126 4.341514 3.502813 2.866968 2.399370 2.071507 1.860118 1.746056 1.713030 1.746318 1.831574 1.953781 2.096443 2.241072 2.367081 2.452165 2.473373 2.409293 2.244805 1.980914 1.646739 1.287722 1.018353 0.959172 0.959172 0.959172 22283.257302 22283.257302 22283.257302 22281.050829 22264.779547 22259.476436 22294.774186 22359.569669 22381.612732 22259.937641 22046.336845 21761.426842 21443.487009 21142.029513 20746.733795 20247.457258 19709.528369 19223.775541 18842.768054 18453.043606 17993.206872 17534.726446 17144.437156 16763.076622 16320.836700 15784.155267 15172.989202 14520.612391 13842.630701 13156.326900 12402.932421 11590.281749 10673.026311 9502.897062 8080.740068 6579.041778 5207.315704 4129.740639 3387.818970 2904.547718 2544.090053 2176.376508 1753.070306 1366.722715 1116.338395 983.928382 908.930994 837.468802 714.999963 490.341970 179.755908 -98.128481 -265.877103 -339.477586 -357.504441 -345.638892 -317.854067 -281.634063 -241.243032 -199.369692 -157.902302 -118.276991 -81.620290 -48.795095 -20.406841 3.199108 21.932360 35.937600 45.559287 51.294506 53.739616 53.536833 51.326042 47.705634 43.204381 38.264668 33.236089 28.377527 23.865418 19.805876 16.248586 13.200802 10.640238 8.526132 6.808120 5.432899 4.348849 3.508902 2.872013 2.403559 2.075002 1.863044 1.748502 1.715045 1.747919 1.832754 1.954528 2.096772 2.241100 2.367166 2.453227 2.477563 2.421309 2.273489 2.038209 1.739353 1.408997 1.157249 1.104606 1.104606 1.104606 22283.257302 22283.257302 22283.257302 22281.050829 22264.779547 22259.476436 22294.774186 22359.569669 22381.612732 22259.937641 22046.336845 21761.426842 21443.487009 21142.029513 20746.733795 20247.457258 19709.528369 19223.775541 18842.768054 18453.043606 17993.206872 17534.726446 17144.437156 16763.076622 16320.836700 15784.155267 15172.989202 14520.612391 13842.630701 13156.326900 12402.932421 11590.281749 10673.026311 9502.897062 8080.740068 6579.041778 5207.315704 4129.740639 3387.818970 2904.547718 2544.090053 2176.376508 1753.070306 1366.722715 1116.338395 983.928382 908.930994 837.468802 714.999963 490.341970 179.755908 -98.128481 -265.877103 -339.477586 -357.504441 -345.638892 -317.854067 -281.634063 -241.243032 -199.369692 -157.902302 -118.276991 -81.620290 -48.795095 -20.406841 3.199108 21.932360 35.937600 45.559287 51.294506 53.739616 53.536833 51.326042 47.705634 43.204381 38.264668 33.236089 28.377527 23.865418 19.805876 16.248586 13.200802 10.640238 8.526132 6.808120 5.432899 4.348849 3.508902 2.872013 2.403559 2.075002 1.863044 1.748502 1.715045 1.747919 1.832754 1.954528 2.096772 2.241100 2.367166 2.453227 2.477563 2.421309 2.273489 2.038209 1.739353 1.408997 1.157249 1.104606 1.104606 1.104606 22283.257302 22283.257302 22283.257302 22281.050829 22264.779547 22259.476436 22294.774186 22359.569669 22381.612732 22259.937641 22046.336845 21761.426842 21443.487009 21142.029513 20746.733795 20247.457258 19709.528369 19223.775541 18842.768054 18453.043606 17993.206872 17534.726446 17144.437156 16763.076622 16320.836700 15784.155267 15172.989202 14520.612391 13842.630701 13156.326900 12402.932421 11590.281749 10673.026311 9502.897062 8080.740068 6579.041778 5207.315704 4129.740639 3387.818970 2904.547718 2544.090053 2176.376508 1753.070306 1366.722715 1116.338395 983.928382 908.930994 837.468802 714.999963 490.341970 179.755908 -98.128481 -265.877103 -339.477586 -357.504441 -345.638892 -317.854067 -281.634063 -241.243032 -199.369692 -157.902302 -118.276991 -81.620290 -48.795095 -20.406841 3.199108 21.932360 35.937600 45.559287 51.294506 53.739616 53.536833 51.326042 47.705634 43.204381 38.264668 33.236089 28.377527 23.865418 19.805876 16.248586 13.200802 10.640238 8.526132 6.808120 5.432899 4.348849 3.508902 2.872013 2.403559 2.075002 1.863044 1.748502 1.715045 1.747919 1.832754 1.954528 2.096772 2.241100 2.367166 2.453227 2.477563 2.421309 2.273489 2.038209 1.739353 1.408997 1.157249 1.104606 1.104606 1.104606 13185.361433 13185.361433 13185.361433 13197.217792 13454.833515 13646.353191 13052.672101 13601.936777 13417.521014 14051.051317 11925.794725 10334.087194 10278.673691 10315.986897 10217.769003 9053.287827 8771.359848 7352.611410 5899.378053 4318.035993 4030.542354 2908.992424 568.163221 3140.892553 455.067786 -5156.865880 -3290.094175 -1873.732667 -950.365856 -191.235524 606.914741 1545.301270 365.021466 -1519.202477 -1063.236649 -337.211382 300.845680 1142.984133 854.773642 -1023.838445 -1102.688401 -337.981014 399.835537 916.592885 -592.146569 -1625.843277 -754.210354 -1.098552 -1235.136063 -2495.747007 -2170.009745 -1853.542707 -1666.507493 -1543.863537 -1457.860483 -1394.442535 13262.539772 13262.539772 13262.539772 13345.011638 14687.137277 14879.785684 12184.658084 14734.820051 12279.585802 11738.632895 11155.096241 12244.365866 13865.533435 13995.978434 12705.689048 13467.163621 14820.962343 11858.870809 15798.447295 13504.444130 13685.290350 14957.485342 13341.676181 13399.733523 13607.728934 13945.746291 14266.298661 12958.060072 10715.860537 12740.426714 15537.354798 12789.700128 13937.849709 13201.289040 13160.161636 13245.895750 11785.404355 13724.515415 12898.818501 12696.533127 14063.115482 13151.911262 13184.768001 12101.966252 13596.866897 14578.498808 15226.123074 13287.741058 15182.219839 13135.041914 13226.667670 15047.888438 13908.859097 3790.428730 -572.536057 -1757.279469 13374.719647 13374.719647 13374.719647 13478.687300 14643.131615 13752.900952 11149.356330 11270.211863 11422.826931 12641.739058 13191.877725 12221.396468 13568.472059 11245.987903 11728.643497 11400.748444 12654.552747 12684.693335 12686.838007 12461.319867 13407.855674 12510.799126 13282.774893 13348.010772 13197.575614 15049.941743 12108.016764 12794.991856 12576.706557 13062.499836 13957.962258 13180.340356 14329.893385 13673.851250 12665.706357 15328.256399 13628.828567 12924.755887 14026.012930 14889.416271 13291.516541 14797.545874 12478.554248 14774.275599 15402.076642 13190.110531 14286.570461 14173.057196 15162.127152 14451.288213 14776.783822 14567.170598 5943.776467 9569.007079 2.167173 62.428044 13554.943670 13554.943670 13554.943670 13485.833367 12738.333724 12760.766855 11408.054409 14692.942418 11612.864439 10906.160190 9620.069375 10646.834714 12384.369456 14911.649172 11882.730618 13224.665928 14020.636790 14017.429940 12657.473306 12743.659940 14960.320392 12733.081554 12716.635006 12803.548007 14903.069409 14410.462575 14103.065835 11950.230267 15391.171097 14727.589240 13719.217774 11989.644783 14206.965407 15495.447173 15311.846892 14594.572617 18137.668138 14235.040524 13579.461398 13577.359841 13870.037273 15159.182412 14808.943566 14805.318225 15255.324351 11944.621520 14129.580086 12932.812531 15327.758708 15321.858199 12885.463315 13500.898395 1026.863478 13190.033519 2170.952378 2907.069806 138