<VTKFile type="PolyData">
<PolyData>
<Piece NumberOfPoints="8632" NumberOfVerts="8632" NumberOfLines="0" NumberOfStrips="0" NumberOfPolys="0">
<PointData>
<DataArray type="Float64" Name="Pressure" format="ascii">
 12985.045787 12985.045787 12985.045787 12982.281953 12949.583262 12855.012243 12716.777316 12518.726676 12257.064793 11932.025821 11544.400001 11096.263714 10597.416654 10064.889136 9514.283637 8953.059740 8382.184635 7805.453170 7232.504215 6668.735775 6118.545962 5585.457007 5065.294338 4554.939224 4052.361883 3550.430855 3050.409795 2565.276425 2101.930181 1651.738128 1213.225124 831.103182 569.228847 427.697929 356.638088 299.653786 204.458150 50.876181 -102.117385 -189.928379 -232.188792 -291.194394 -422.564420 -612.956200 -779.323569 -908.141145 -1057.903074 -1247.692195 -1407.475225 -1489.112316 -1510.125319 -1498.353215 -1469.599334 -1431.850320 -1388.898539 -1342.247565 -1292.471370 -1240.388678 -1187.131752 -1133.543091 -1080.118761 -1027.181950 -974.975120 -923.698094 -873.521165 -824.589425 -777.024663 -730.926964 -686.376505 -643.435537 -602.150383 -562.553317 -524.664248 -488.492176 -454.036427 -421.287697 -390.228958 -360.836239 -333.079344 -306.922507 -282.325023 -259.241853 -237.624209 -217.420129 -198.575025 -181.032219 -164.733444 -149.619323 -135.629814 -122.704616 -110.783545 -99.806867 -89.715597 -80.451761 -71.958619 -64.180861 -57.064776 -50.558401 -44.611699 -39.176814 -34.208613 -29.665942 -25.514678 -21.734651 -18.332006 -15.340066 -12.741233 -11.064627 -10.747715 -10.747715 -10.747715 12985.045787 12985.045787 12985.045787 12982.281953 12949.583262 12855.012243 12716.777316 12518.726676 12257.064793 11932.025821 11544.400001 11096.263714 10597.416654 10064.889136 9514.283637 8953.059740 8382.184635 7805.453170 7232.504215 6668.735775 6118.545962 5585.457007 5065.294338 4554.939224 4052.361883 3550.430855 3050.409795 2565.276425 2101.930181 1651.738128 1213.225124 831.103182 569.228847 427.697929 356.638088 299.653786 204.458150 50.876181 -102.117385 -189.928379 -232.188792 -291.194394 -422.564420 -612.956200 -779.323569 -908.141145 -1057.903074 -1247.692195 -1407.475225 -1489.112316 -1510.125319 -1498.353215 -1469.599334 -1431.850320 -1388.898539 -1342.247565 -1292.471370 -1240.388678 -1187.131752 -1133.543091 -1080.118761 -1027.181950 -974.975120 -923.698094 -873.521165 -824.589425 -777.024663 -730.926964 -686.376505 -643.435537 -602.150383 -562.553317 -524.664248 -488.492176 -454.036427 -421.287697 -390.228958 -360.836239 -333.079344 -306.922507 -282.325023 -259.241853 -237.624209 -217.420129 -198.575025 -181.032219 -164.733444 -149.619323 -135.629814 -122.704616 -110.783545 -99.806867 -89.715597 -80.451761 -71.958619 -64.180861 -57.064776 -50.558401 -44.611699 -39.176814 -34.208613 -29.665942 -25.514678 -21.734651 -18.332006 -15.340066 -12.741233 -11.064627 -10.747715 -10.747715 -10.747715 12985.045787 12985.045787 12985.045787 12982.281953 12949.583262 12855.012243 12716.777316 12518.726676 12257.064793 11932.025821 11544.400001 11096.263714 10597.416654 10064.889136 9514.283637 8953.059740 8382.184635 7805.453170 7232.504215 6668.735775 6118.545962 5585.457007 5065.294338 4554.939224 4052.361883 3550.430855 3050.409795 2565.276425 2101.930181 1651.738128 1213.225124 831.103182 569.228847 427.697929 356.638088 299.653786 204.458150 50.876181 -102.117385 -189.928379 -232.188792 -291.194394 -422.564420 -612.956200 -779.323569 -908.141145 -1057.903074 -1247.692195 -1407.475225 -1489.112316 -1510.125319 -1498.353215 -1469.599334 -1431.850320 -1388.898539 -1342.247565 -1292.471370 -1240.388678 -1187.131752 -1133.543091 -1080.118761 -1027.181950 -974.975120 -923.698094 -873.521165 -824.589425 -777.024663 -730.926964 -686.376505 -643.435537 -602.150383 -562.553317 -524.664248 -488.492176 -454.036427 -421.287697 -390.228958 -360.836239 -333.079344 -306.922507 -282.325023 -259.241853 -237.624209 -217.420129 -198.575025 -181.032219 -164.733444 -149.619323 -135.629814 -122.704616 -110.783545 -99.806867 -89.715597 -80.451761 -71.958619 -64.180861 -57.064776 -50.558401 -44.611699 -39.176814 -34.208613 -29.665942 -25.514678 -21.734651 -18.332006 -15.340066 -12.741233 -11.064627 -10.747715 -10.747715 -10.747715 12996.138816 12996.138816 12996.138816 12993.684833 12965.185975 12880.593734 12746.715325 12550.910548 12291.857413 11968.860210 11583.418262 11135.136656 10633.128234 10096.448039 9542.086307 8979.266848 8407.340656 7824.003471 7246.124089 6678.724853 6125.149504 5592.827179 5073.530649 4566.562972 4075.118203 3579.802398 3075.482214 2582.309614 2114.712470 1659.152295 1200.334978 791.507397 528.928978 405.308218 353.641725 314.248963 227.407662 50.346549 -128.693111 -205.559637 -226.043947 -265.170198 -393.084589 -626.315204 -791.435024 -899.924997 -1053.570694 -1289.358186 -1434.151256 -1510.464474 -1522.332757 -1504.926423 -1473.152539 -1433.904649 -1390.309552 -1343.407804 -1293.309088 -1240.838918 -1187.325921 -1133.618224 -1080.142471 -1027.183318 -974.966120 -923.683703 -873.503560 -824.569663 -777.003344 -730.904485 -686.353165 -643.411579 -602.126011 -562.528706 -524.639552 -488.467530 -454.011949 -421.263495 -390.205127 -360.812866 -333.056504 -306.900269 -282.303445 -259.220987 -237.604098 -217.400807 -198.556521 -181.014552 -164.716630 -149.603369 -135.614722 -122.690384 -110.770164 -99.794326 -89.703881 -80.440850 -71.948490 -64.171485 -57.056111 -50.550379 -44.604185 -39.169510 -34.200802 -29.655876 -25.498234 -21.703296 -18.277353 -15.269102 -12.681924 -11.016706 -10.702157 -10.702157 -10.702157 13118.973398 13118.973398 13118.973398 13122.045335 13155.995024 13185.075855 13095.025405 12924.538164 12709.942633 12412.724668 12057.274264 11610.737348 11079.281123 10494.978396 9882.983432 9312.123789 8742.033116 8065.545582 7412.634330 6794.068345 6184.561650 5656.900716 5125.882358 4644.547333 4332.718554 3964.658698 3402.037330 2787.811599 2272.223442 1801.228278 1082.688976 193.032465 6.007967 143.012010 323.403666 498.673469 624.457684 63.154672 -558.189684 -411.756945 -157.182559 131.940010 8.738862 -879.290658 -1035.335062 -788.771247 -980.407122 -1848.881139 -1954.087860 -1755.723249 -1656.697666 -1576.216641 -1511.594053 -1456.183981 -1405.990258 -1357.738717 -1303.872747 -1245.543982 -1189.271077 -1134.352715 -1080.370679 -1027.193155 -974.874520 -923.539107 -873.327201 -824.371903 -776.790080 -730.679662 -686.119761 -643.172012 -601.882317 -562.282638 -524.392637 -488.221113 -453.767225 -421.021532 -389.966881 -360.579194 -332.828171 -306.677950 -282.087732 -259.012389 -237.403043 -217.207648 -198.371535 -180.837947 -164.548545 -149.443885 -135.463861 -122.548116 -110.636414 -99.668975 -89.586773 -80.331793 -71.847250 -64.077770 -56.969513 -50.470232 -44.529180 -39.096727 -34.123247 -29.556304 -25.334226 -21.377031 -17.601700 -14.339760 -11.950038 -10.466453 -10.201482 -10.201482 -10.201482 13298.588245 13298.588245 13298.588245 13306.964922 13475.135387 13773.064133 13528.751752 13540.028677 13581.972899 13158.870808 12861.048900 12388.903916 11755.127891 11283.599884 10470.074731 9711.517774 9573.604147 8421.941570 7702.237191 7104.481790 6188.932568 5818.554146 5189.120450 4356.189020 4739.924273 4799.367156 4030.468330 3062.968342 2483.318868 2200.959874 1140.007461 -890.236661 -891.000513 -184.361783 289.812079 779.553521 1274.341718 146.388881 -1173.852070 -719.878548 -73.557444 697.426833 517.402621 -1293.340878 -1433.101870 -533.940350 -378.956386 -2004.220319 -2545.568426 -2072.874094 -1817.292273 -1660.274663 -1556.812029 -1482.465000 -1425.236337 -1379.336470 -1324.499486 -1253.917140 -1192.317872 -1135.491706 -1080.746524 -1027.249868 -974.788118 -923.381449 -873.129078 -824.147744 -776.547650 -730.423865 -685.854151 -642.899397 -601.605035 -562.002684 -524.111746 -487.940812 -453.488869 -420.746332 -389.695924 -360.313452 -332.568511 -306.425140 -281.842445 -258.775202 -237.174445 -216.988037 -198.161226 -180.637175 -164.357469 -149.262594 -135.292380 -122.386410 -110.484396 -99.526510 -89.453681 -80.207851 -71.732183 -63.971222 -56.870964 -50.378775 -44.442955 -39.011460 -34.028509 -29.425788 -25.099426 -20.848286 -16.148484 -12.627855 -10.803143 -9.702451 -9.500494 -9.500494 -9.500494 -11.933268 -10.353055 -9.515723 -9.402181 -9.402181 -9.402181 -10.270311 -9.368222 -8.801346 -8.723574 -8.723574 -8.723574 -8.265302 -7.957447 -7.704020 -7.668301 -7.668301 -7.668301 -6.914487 -6.799985 -6.701150 -6.686539 -6.686539 -6.686539 -5.877634 -5.838813 -5.806518 -5.801934 -5.801934 -5.801934 -5.030987 -5.022373 -5.017467 -5.017082 -5.017082 -5.017082 -4.316699 -4.319871 -4.325584 -4.326817 -4.326817 -4.326817 -3.704550 -3.711893 -3.721190 -3.722946 -3.722946 -3.722946 -3.176357 -3.184746 -3.194738 -3.196568 -3.196568 -3.196568 -2.719562 -2.727750 -2.737300 -2.739029 -2.739029 -2.739029 -2.324491 -2.332021 -2.340726 -2.342295 -2.342295 -2.342295 -1.983158 -1.989899 -1.997661 -1.999058 -1.999058 -1.999058 -1.688719 -1.694673 -1.701516 -1.702746 -1.702746 -1.702746 -1.435198 -1.440416 -1.446410 -1.447487 -1.447487 -1.447487 -1.217338 -1.221891 -1.227118 -1.228056 -1.228056 -1.228056 -1.030504 -1.034462 -1.039005 -1.039821 -1.039821 -1.039821 -0.870608 -0.874039 -0.877978 -0.878686 -0.878686 -0.878686 -0.734053 -0.737020 -0.740426 -0.741038 -0.741038 -0.741038 -0.617676 -0.620235 -0.623174 -0.623701 -0.623701 -0.623701 -0.518704 -0.520907 -0.523436 -0.523890 -0.523890 -0.523890 -0.434712 -0.436604 -0.438776 -0.439166 -0.439166 -0.439166 -0.363584 -0.365205 -0.367065 -0.367400 -0.367400 -0.367400 -0.303478 -0.304863 -0.306453 -0.306739 -0.306739 -0.306739 -0.252793 -0.253974 -0.255330 -0.255574 -0.255574 -0.255574 -0.210143 -0.211149 -0.212303 -0.212510 -0.212510 -0.212510 -0.174333 -0.175186 -0.176166 -0.176342 -0.176342 -0.176342 -0.144328 -0.145051 -0.145881 -0.146030 -0.146030 -0.146030 -0.119242 -0.119853 -0.120555 -0.120681 -0.120681 -0.120681 -0.098314 -0.098829 -0.099421 -0.099527 -0.099527 -0.099527 -0.080892 -0.081325 -0.081823 -0.081912 -0.081912 -0.081912 -0.066419 -0.066783 -0.067201 -0.067276 -0.067276 -0.067276 -0.054423 -0.054727 -0.055077 -0.055140 -0.055140 -0.055140 -0.044500 -0.044755 -0.045048 -0.045100 -0.045100 -0.045100 -0.036312 -0.036524 -0.036768 -0.036811 -0.036811 -0.036811 -0.029568 -0.029744 -0.029947 -0.029984 -0.029984 -0.029984 -0.024026 -0.024173 -0.024341 -0.024371 -0.024371 -0.024371 -0.019482 -0.019603 -0.019743 -0.019768 -0.019768 -0.019768 -0.015765 -0.015865 -0.015980 -0.016001 -0.016001 -0.016001 -0.012729 -0.012812 -0.012907 -0.012924 -0.012924 -0.012924 -0.010257 -0.010325 -0.010403 -0.010417 -0.010417 -0.010417 -0.008248 -0.008303 -0.008367 -0.008379 -0.008379 -0.008379 -0.006618 -0.006663 -0.006716 -0.006725 -0.006725 -0.006725 -0.005299 -0.005336 -0.005379 -0.005386 -0.005386 -0.005386 -0.004234 -0.004264 -0.004299 -0.004305 -0.004305 -0.004305 -0.003375 -0.003400 -0.003428 -0.003434 -0.003434 -0.003434 -0.002685 -0.002705 -0.002728 -0.002733 -0.002733 -0.002733 -0.002132 -0.002148 -0.002167 -0.002170 -0.002170 -0.002170 -0.001689 -0.001702 -0.001717 -0.001720 -0.001720 -0.001720 -0.001335 -0.001346 -0.001358 -0.001360 -0.001360 -0.001360 -0.001053 -0.001062 -0.001071 -0.001073 -0.001073 -0.001073 -0.000829 -0.000836 -0.000844 -0.000845 -0.000845 -0.000845 -0.000651 -0.000657 -0.000663 -0.000664 -0.000664 -0.000664 -0.000510 -0.000515 -0.000520 -0.000521 -0.000521 -0.000521 -0.000399 -0.000403 -0.000407 -0.000407 -0.000407 -0.000407 -0.000312 -0.000314 -0.000317 -0.000318 -0.000318 -0.000318 -0.000243 -0.000245 -0.000247 -0.000248 -0.000248 -0.000248 -0.000189 -0.000190 -0.000192 -0.000193 -0.000193 -0.000193 -0.000146 -0.000148 -0.000149 -0.000149 -0.000149 -0.000149 -0.000113 -0.000114 -0.000115 -0.000116 -0.000116 -0.000116 -0.000087 -0.000088 -0.000089 -0.000089 -0.000089 -0.000089 -0.000067 -0.000068 -0.000069 -0.000069 -0.000069 -0.000069 -0.000052 -0.000052 -0.000053 -0.000053 -0.000053 -0.000053 -0.000040 -0.000040 -0.000041 -0.000041 -0.000041 -0.000041 -0.000030 -0.000031 -0.000031 -0.000031 -0.000031 -0.000031 -0.000023 -0.000023 -0.000024 -0.000024 -0.000024 -0.000024 -0.000018 -0.000018 -0.000018 -0.000018 -0.000018 -0.000018 -0.000013 -0.000014 -0.000014 -0.000014 -0.000014 -0.000014 -0.000010 -0.000010 -0.000010 -0.000010 -0.000010 -0.000010 -0.000008 -0.000008 -0.000008 -0.000008 -0.000008 -0.000008 -0.000006 -0.000006 -0.000006 -0.000006 -0.000006 -0.000006 -0.000004 -0.000004 -0.000005 -0.000005 -0.000005 -0.000005 -0.000003 -0.000003 -0.000003 -0.000003 -0.000003 -0.000003 -0.000002 -0.000003 -0.000003 -0.000003 -0.000003 -0.000003 -0.000002 -0.000002 -0.000002 -0.000002 -0.000002 -0.000002 -0.000001 -0.000001 -0.000001 -0.000001 -0.000001 -0.000001 -0.000001 -0.000001 -0.000001 -0.000001 -0.000001 -0.000001 -0.000001 -0.000001 -0.000001 -0.000001 -0.000001 -0.000001 -0.000001 -0.000001 -0.000001 -0.000001 -0.000001 -0.000001 -0.000000 -0.000000 -0.000000 -0.000000 -0.000000 -0.000000 -0.000000 -0.000000 -0.000000 -0.000000 -0.000000 -0.000000 -0.000000 -0.000000 -0.000000 -0.000000 -0.000000 -0.000000 -0.000000 -0.000000 -0.000000 -0.000000 -0.000000 -0.000000 -0.000000 -0.000000 -0.000000 -0.000000 -0.000000 -0.000000 -0.000000 -0.000000 -0.000000 -0.000000 -0.000000 -0.000000 -0.000000 -0.000000 -0.000000 -0.000000 -0.000000 -0.000000 -0.000000 -0.000000 -0.000000 -0.000000 -0.000000 -0.000000 -0.000000 -0.000000 -0.000000 -0.000000 -0.000000 -0.000000 -0.000000 -0.000000 -0.000000 -0.000000 -0.000000 -0.000000 -0.000000 -0.000000 -0.000000 -0.000000 -0.000000 -0.000000 -0.000000 -0.000000 -0.000000 -0.000000 -0.000000 -0.000000 -0.000000 -0.000000 -0.000000 -0.000000 -0.000000 -0.000000 -0.000000 -0.000000 -0.000000 -0.000000 -0.000000 -0.000000 -0.000000 -0.000000 -0.000000 -0.000000 -0.000000 -0.000000 -0.000000 -0.000000 -0.000000 -0.000000 -0.000000 -0.000000 -0.000000 -0.000000 -0.000000 -0.000000 -0.000000 -0.000000 -0.000000 -0.000000 -0.000000 -0.000000 -0.000000 -0.000000 -0.000000 -0.000000 -0.000000 -0.000000 -0.000000 -0.000000 0.000000 -0.000000 -0.000000 0.000000 0.000000 0.000000 0.000000 0.000000 0.000000 0.000000 0.000000 0.000000 0.000000 0.000000 0.000000 0.000000 0.000000 0.000000 0.000000 0.000000 0.000000 0.000000 0.000000 0.000000 0.000000 0.000000 0.000000 0.000000 0.000000 0.000000 0.000000 0.000000 0.000000 0.000000 0.000000 0.000000 0.000000 0.000000 0.000000 0.000000 0.000000 0.000000 0.000000 0.000000 0.000000 0.000000 0.000000 0.000000 0.000000 0.000000 0.000000 0.000000 0.000000 0.000000 0.000000 0.000000 0.000000 0.000000 0.000000 0.000000 0.000000 0.000000 0.000000 0.000000 0.000000 0.000000 0.000000 0.000000 0.000000 0.000000 0.000000 0.000000 0.000000 0.000000 0.000000 0.000000 0.000000 0.000000 0.000000 0.000000 0.000000 0.000000 0.000000 0.000000 0.000001 0.000001 0.000001 0.000001 0.000001 0.000001 0.000001 0.000001 0.000001 0.000001 0.000001 0.000001 0.000001 0.000001 0.000001 0.000001 0.000001 0.000001 0.000002 0.000002 0.000002 0.000002 0.000002 0.000002 0.000003 0.000003 0.000003 0.000003 0.000003 0.000003 0.000005 0.000005 0.000005 0.000005 0.000005 0.000005 0.000007 0.000007 0.000007 0.000007 0.000007 0.000007 0.000010 0.000010 0.000010 0.000011 0.000011 0.000011 0.000015 0.000015 0.000015 0.000015 0.000015 0.000015 0.000021 0.000022 0.000022 0.000022 0.000022 0.000022 0.000031 0.000032 0.000032 0.000033 0.000033 0.000033 0.000045 0.000046 0.000047 0.000047 0.000047 0.000047 0.000064 0.000066 0.000067 0.000067 0.000067 0.000067 0.000092 0.000093 0.000095 0.000095 0.000095 0.000095 0.000130 0.000132 0.000134 0.000135 0.000135 0.000135 0.000183 0.000186 0.000189 0.000190 0.000190 0.000190 0.000255 0.000259 0.000264 0.000265 0.000265 0.000265 0.000355 0.000360 0.000366 0.000367 0.000367 0.000367 0.000490 0.000497 0.000504 0.000506 0.000506 0.000506 0.000672 0.000681 0.000691 0.000693 0.000693 0.000693 0.000915 0.000927 0.000941 0.000943 0.000943 0.000943 0.001239 0.001254 0.001272 0.001275 0.001275 0.001275 0.001667 0.001687 0.001709 0.001713 0.001713 0.001713 0.002228 0.002253 0.002281 0.002286 0.002286 0.002286 0.002958 0.002989 0.003025 0.003032 0.003032 0.003032 0.003901 0.003940 0.003985 0.003993 0.003993 0.003993 0.005110 0.005158 0.005214 0.005224 0.005224 0.005224 0.006649 0.006708 0.006776 0.006788 0.006788 0.006788 0.008591 0.008663 0.008746 0.008761 0.008761 0.008761 0.011024 0.011111 0.011210 0.011228 0.011228 0.011228 0.014047 0.014150 0.014269 0.014290 0.014290 0.014290 0.017772 0.017893 0.018032 0.018057 0.018057 0.018057 0.022321 0.022462 0.022624 0.022653 0.022653 0.022653 0.027829 0.027992 0.028177 0.028211 0.028211 0.028211 0.034437 0.034621 0.034831 0.034868 0.034868 0.034868 0.042288 0.042493 0.042727 0.042769 0.042769 0.042769 0.051524 0.051748 0.052004 0.052049 0.052049 0.052049 0.062274 0.062514 0.062788 0.062837 0.062837 0.062837 0.074646 0.074898 0.075185 0.075236 0.075236 0.075236 0.088716 0.088972 0.089264 0.089316 0.089316 0.089316 0.104511 0.104761 0.105046 0.105097 0.105097 0.105097 0.121989 0.122222 0.122485 0.122532 0.122532 0.122532 0.141027 0.141225 0.141450 0.141490 0.141490 0.141490 0.161391 0.161536 0.161700 0.161729 0.161729 0.161729 0.182719 0.182790 0.182866 0.182880 0.182880 0.182880 0.204498 0.204467 0.204428 0.204420 0.204420 0.204420 0.226038 0.225877 0.225688 0.225654 0.225654 0.225654 0.246455 0.246132 0.245758 0.245691 0.245691 0.245691 0.264652 0.264135 0.263538 0.263431 0.263431 0.263431 0.279311 0.278565 0.277707 0.277553 0.277553 0.277553 0.288883 0.287876 0.286719 0.286511 0.286511 0.286511 0.291600 0.290301 0.288809 0.288541 0.288541 0.288541 0.285483 0.283865 0.282008 0.281675 0.281675 0.281675 0.268374 0.266416 0.264171 0.263769 0.263769 0.263769 0.237977 0.235666 0.233019 0.232545 0.232545 0.232545 0.191912 0.189246 0.186194 0.185647 0.185647 0.185647 0.127785 0.124774 0.121330 0.120713 0.120713 0.120713 0.043275 0.039944 0.036135 0.035453 0.035453 0.035453 -0.063774 -0.067385 -0.071512 -0.072251 -0.072251 -0.072251 -0.195243 -0.199077 -0.203457 -0.204241 -0.204241 -0.204241 -0.352628 -0.356611 -0.361159 -0.361973 -0.361973 -0.361973 -0.536922 -0.540964 -0.545577 -0.546403 -0.546403 -0.546403 -0.748507 -0.752501 -0.757057 -0.757872 -0.757872 -0.757872 -0.987043 -0.990870 -0.995232 -0.996013 -0.996013 -0.996013 -1.251384 -1.254913 -1.258934 -1.259653 -1.259653 -1.259653 -1.539506 -1.542601 -1.546124 -1.546754 -1.546754 -1.546754 -1.848463 -1.850985 -1.853853 -1.854366 -1.854366 -1.854366 -2.174377 -2.176192 -2.178252 -2.178619 -2.178619 -2.178619 -2.512464 -2.513446 -2.514554 -2.514751 -2.514751 -2.514751 -2.857092 -2.857131 -2.857162 -2.857166 -2.857166 -2.857166 -3.201888 -3.200894 -3.199747 -3.199540 -3.199540 -3.199540 -3.539880 -3.537790 -3.535393 -3.534963 -3.534963 -3.534963 -3.863673 -3.860456 -3.856774 -3.856113 -3.856113 -3.856113 -4.165662 -4.161321 -4.156357 -4.155468 -4.155468 -4.155468 -4.438264 -4.432841 -4.426642 -4.425532 -4.425532 -4.425532 -4.674173 -4.667746 -4.660403 -4.659088 -4.659088 -4.659088 -4.866608 -4.859296 -4.850943 -4.849448 -4.849448 -4.849448 -5.009569 -5.001527 -4.992342 -4.990697 -4.990697 -4.990697 -5.098061 -5.089484 -5.079684 -5.077930 -5.077930 -5.077930 -5.128292 -5.119415 -5.109264 -5.107445 -5.107445 -5.107445 -5.097808 -5.088925 -5.078742 -5.076915 -5.076915 -5.076915 -5.005553 -4.997064 -4.987268 -4.985505 -4.985505 -4.985505 -4.851800 -4.844324 -4.835544 -4.833948 -4.833948 -4.833948 -4.637834 -4.632508 -4.625846 -4.624595 -4.624595 -4.624595 -4.365176 -4.364346 -4.362013 -4.361457 -4.361457 -4.361457 -4.033752 -4.042698 -4.049476 -4.050350 -4.050350 -4.050350 -3.637565 -3.669037 -3.695471 -3.699306 -3.699306 -3.699306 -3.153524 -3.241843 -3.310118 -3.319593 -3.319593 -3.319593 -2.503207 -2.768010 -2.907321 -2.925828 -2.925828 -2.925828 16437.276140 16437.276140 16437.276140 16358.405701 15188.318545 13988.355494 14176.080065 13344.523134 12094.481442 11857.462934 13620.811477 14715.902420 14560.809667 13963.570624 13841.418411 12586.899637 12502.459146 13076.764748 12973.932818 10258.476517 8537.602296 9453.954078 9011.924323 6940.634118 6754.924604 7388.700713 6319.348084 4968.873782 3757.703922 3876.351332 4409.964936 4507.599177 4467.465220 4523.838566 5326.629403 6317.066568 -515.125568 -3694.159479 -1048.749744 124.469486 815.974616 1523.254511 3124.089986 3687.975736 -2040.164960 -3490.487025 -1693.478952 -1023.823331 -708.750988 -553.289000 -470.457473 -420.956052 -386.574147 -358.918725 -334.200444 -310.774617 -287.981134 -265.602735 -243.616289 -222.081090 -201.089753 -180.746650 -161.157864 -142.425661 -124.644684 -107.898891 -92.259011 -77.780502 -64.502080 -52.444874 -41.612207 -31.990014 -23.547821 -16.240234 -10.008834 -4.784372 -0.489154 2.960495 5.651796 7.673195 9.112237 10.053691 10.577975 10.759887 10.667664 10.362356 9.897491 9.319005 8.665403 7.968109 7.251967 6.535852 5.833352 5.153492 4.501467 3.879356 3.286790 2.721553 2.180057 1.657612 1.148299 0.643989 0.131333 -0.416016 -1.077506 -1.762003 -2.216055 -2.471507 -2.517312 -2.517312 -2.517312 16506.793796 16506.793796 16506.793796 16473.893925 15832.380836 14704.376219 14672.745643 14327.981617 13165.364773 12928.287270 13440.052240 13837.683233 13667.731074 13223.093595 12505.816637 11926.349491 11636.603273 11500.021040 11125.426489 10209.914894 9402.102896 9115.129249 8446.534179 7647.073875 7178.155589 6812.326218 6245.762202 5651.071169 5161.619456 4898.705437 4789.522673 4643.141865 4436.453200 4247.734221 4094.199631 3558.410872 1648.571748 374.096969 379.420028 679.385955 935.342118 1207.475697 1486.459820 1307.401474 -370.081869 -1099.397084 -917.822246 -692.931655 -560.522038 -485.521844 -439.374400 -406.705918 -380.044177 -355.926914 -332.833895 -310.160470 -287.721205 -265.515003 -243.617210 -222.132075 -201.172731 -180.852842 -161.282580 -142.565885 -124.797967 -108.062876 -92.431256 -77.958444 -64.683079 -52.626281 -41.791445 -32.164657 -23.715669 -16.399367 -10.157660 -4.921652 -0.614013 2.848571 5.552979 7.587342 9.038928 9.992276 10.527617 10.719609 10.636399 10.338989 9.880896 9.308082 8.659104 7.965461 7.252089 6.537965 5.836784 5.157684 4.505974 3.883848 3.291067 2.725580 2.184058 1.662303 1.155451 0.657797 0.162016 -0.342039 -0.857395 -1.355349 -1.781897 -2.055196 -2.104860 -2.104860 -2.104860 16565.199605 16565.199605 16565.199605 16542.328089 16287.753670 15710.086626 15228.812293 14712.493450 14131.994633 13721.284756 13497.657086 13320.906664 13077.199749 12729.435181 12306.779110 11876.644058 11480.960175 11085.756311 10626.021718 10101.739922 9578.774258 9078.720349 8551.477505 8023.519672 7550.659927 7112.931153 6666.800316 6222.402617 5805.538622 5434.072478 5095.739878 4760.424432 4412.109839 4043.485991 3624.007907 3068.464890 2349.324187 1704.379409 1321.367353 1135.385082 1045.783799 986.812583 885.453112 626.286704 192.949193 -171.181086 -347.064736 -409.870181 -426.361662 -423.053887 -410.530270 -393.442408 -373.953610 -353.131027 -331.555275 -309.587257 -287.482667 -265.441409 -243.630471 -222.195976 -201.270199 -180.975465 -161.425732 -142.726452 -124.973307 -108.250371 -92.628150 -78.161832 -64.889959 -52.833634 -41.996335 -32.364319 -23.907590 -16.581358 -10.327900 -5.078724 -0.756915 2.720431 5.439801 7.488968 8.954886 9.921826 10.469807 10.673329 10.600434 10.312065 9.861732 9.295420 8.651748 7.962300 7.252115 6.540284 5.840629 5.162414 4.511075 3.888937 3.295901 2.730088 2.188427 1.667192 1.162500 0.670806 0.189530 -0.281729 -0.738690 -1.169915 -1.565453 -1.832064 -1.883571 -1.883571 -1.883571 16574.548437 16574.548437 16574.548437 16552.999676 16321.542250 15782.066131 15272.885341 14747.030011 14221.853536 13804.031785 13515.995684 13281.496330 13018.028649 12684.960434 12292.157741 11880.601056 11473.237294 11053.711418 10594.447868 10098.708986 9594.218758 9090.989516 8579.280559 8078.576473 7613.640824 7174.690826 6739.926572 6308.650521 5894.099470 5505.817694 5138.951389 4777.939053 4408.681982 4016.656914 3572.531507 3034.737497 2416.886067 1846.995329 1441.805129 1201.033111 1062.968722 959.712980 819.612119 575.558895 236.447053 -74.063570 -271.078999 -367.905976 -405.748650 -413.339128 -406.024771 -391.366399 -372.998889 -352.692128 -331.354369 -309.497359 -287.445748 -265.430872 -243.634054 -222.207976 -201.287915 -180.997550 -161.451429 -142.755237 -125.004723 -108.283956 -92.663414 -78.198258 -64.927009 -52.870770 -42.033032 -32.400082 -23.941970 -16.613962 -10.358402 -5.106871 -0.782527 2.697460 5.419508 7.471325 8.939808 9.909183 10.459428 10.665016 10.593968 10.307221 9.858279 9.293134 8.650415 7.961720 7.252107 6.540690 5.841310 5.163255 4.511983 3.889843 3.296761 2.730886 2.189189 1.668021 1.163651 0.672863 0.193744 -0.273095 -0.722993 -1.146748 -1.538675 -1.802799 -1.853804 -1.853804 -1.853804 16574.548437 16574.548437 16574.548437 16552.999676 16321.542250 15782.066131 15272.885341 14747.030011 14221.853536 13804.031785 13515.995684 13281.496330 13018.028649 12684.960434 12292.157741 11880.601056 11473.237294 11053.711418 10594.447868 10098.708986 9594.218758 9090.989516 8579.280559 8078.576473 7613.640824 7174.690826 6739.926572 6308.650521 5894.099470 5505.817694 5138.951389 4777.939053 4408.681982 4016.656914 3572.531507 3034.737497 2416.886067 1846.995329 1441.805129 1201.033111 1062.968722 959.712980 819.612119 575.558895 236.447053 -74.063570 -271.078999 -367.905976 -405.748650 -413.339128 -406.024771 -391.366399 -372.998889 -352.692128 -331.354369 -309.497359 -287.445748 -265.430872 -243.634054 -222.207976 -201.287915 -180.997550 -161.451429 -142.755237 -125.004723 -108.283956 -92.663414 -78.198258 -64.927009 -52.870770 -42.033032 -32.400082 -23.941970 -16.613962 -10.358402 -5.106871 -0.782527 2.697460 5.419508 7.471325 8.939808 9.909183 10.459428 10.665016 10.593968 10.307221 9.858279 9.293134 8.650415 7.961720 7.252107 6.540690 5.841310 5.163255 4.511983 3.889843 3.296761 2.730886 2.189189 1.668021 1.163651 0.672863 0.193744 -0.273095 -0.722993 -1.146748 -1.538675 -1.802799 -1.853804 -1.853804 -1.853804 16574.548437 16574.548437 16574.548437 16552.999676 16321.542250 15782.066131 15272.885341 14747.030011 14221.853536 13804.031785 13515.995684 13281.496330 13018.028649 12684.960434 12292.157741 11880.601056 11473.237294 11053.711418 10594.447868 10098.708986 9594.218758 9090.989516 8579.280559 8078.576473 7613.640824 7174.690826 6739.926572 6308.650521 5894.099470 5505.817694 5138.951389 4777.939053 4408.681982 4016.656914 3572.531507 3034.737497 2416.886067 1846.995329 1441.805129 1201.033111 1062.968722 959.712980 819.612119 575.558895 236.447053 -74.063570 -271.078999 -367.905976 -405.748650 -413.339128 -406.024771 -391.366399 -372.998889 -352.692128 -331.354369 -309.497359 -287.445748 -265.430872 -243.634054 -222.207976 -201.287915 -180.997550 -161.451429 -142.755237 -125.004723 -108.283956 -92.663414 -78.198258 -64.927009 -52.870770 -42.033032 -32.400082 -23.941970 -16.613962 -10.358402 -5.106871 -0.782527 2.697460 5.419508 7.471325 8.939808 9.909183 10.459428 10.665016 10.593968 10.307221 9.858279 9.293134 8.650415 7.961720 7.252107 6.540690 5.841310 5.163255 4.511983 3.889843 3.296761 2.730886 2.189189 1.668021 1.163651 0.672863 0.193744 -0.273095 -0.722993 -1.146748 -1.538675 -1.802799 -1.853804 -1.853804 -1.853804 13323.025429 13323.025429 13323.025429 13330.641645 13557.333486 13912.516759 13618.409379 13664.503831 13751.986866 13271.974227 12994.688276 12530.271665 11877.152736 11452.941952 10592.245271 9730.279120 9791.495107 8523.995934 7759.560545 7216.366059 6191.877382 5854.752124 5180.025072 4202.272596 4854.821093 5108.408691 4274.314191 3088.705361 2501.707163 2275.925180 1196.462967 -1006.716323 -1001.122060 -210.313885 287.482308 801.659920 1322.027231 169.817935 -1204.792719 -742.341874 -67.059605 734.754046 542.915991 -1323.642301 -1462.306405 -497.941543 -224.511831 -1866.095294 -2543.809586 -2096.084384 -1829.085172 -1666.368345 -1560.081605 -1484.369468 -1426.697899 -1381.475675 13484.774231 13484.774231 13484.774231 13503.324780 14010.558118 14464.489519 13768.473067 15742.435125 12121.026349 13834.739118 14529.818436 15114.669775 16094.825051 17170.889105 14608.448852 15763.745930 17181.967047 14786.684629 14970.093900 15188.973039 13232.351379 16829.232270 15788.139894 14680.480222 14907.055212 15889.851314 17277.973188 15406.835457 13909.810141 14409.786906 17177.867814 15278.292054 15257.552076 15727.120166 15949.544202 14281.139382 13257.118983 17053.833434 15648.545818 14717.152273 15297.811158 14298.229792 14396.722828 13770.793958 14704.791208 16052.716704 14544.440745 14869.834922 13980.191225 14065.723169 15927.592631 14636.807902 16744.837531 2767.666022 -314.514889 -2435.209547 13753.401980 13753.401980 13753.401980 13743.785775 13828.889171 13955.568694 13661.922197 14718.247711 12163.317616 14765.253377 15808.100965 13887.306530 13811.707566 15226.094497 13156.301842 13080.899510 14630.652413 14771.044013 13547.960340 14817.096085 14634.594639 15430.743879 13948.037051 15368.497905 16053.385648 16130.845182 15062.048744 13822.173804 14762.960768 15038.873462 14648.238651 14333.582543 15213.367281 14008.581276 17028.589297 14977.189373 16869.086112 15204.891196 15598.272582 16620.390478 15418.328314 15969.244449 15614.429640 14126.796917 15305.788305 16286.836392 15876.185392 15023.436529 16005.855250 14113.854487 17276.449937 17334.873551 7824.189313 11706.764206 -549.228801 -47.660602 14041.212996 14041.212996 14041.212996 14026.124944 14138.563266 15157.168721 11464.873280 15383.243997 14182.083475 14690.465948 12726.215689 13691.329500 15552.748044 14742.975505 13670.409873 14704.342709 16343.569111 15775.043995 16442.700872 15956.652967 16242.789819 14501.982793 15088.648549 15401.509866 15978.696642 17414.188702 14249.241989 15306.273021 16055.046520 16310.534869 15575.237711 14953.058924 16493.751982 15713.931046 15147.011281 15738.447710 16124.698629 15120.972813 15237.230081 15616.021112 16244.931802 16556.338268 15370.896532 14436.908339 16443.127277 14629.4