<VTKFile type="PolyData">
<PolyData>
<Piece NumberOfPoints="8632" NumberOfVerts="8632" NumberOfLines="0" NumberOfStrips="0" NumberOfPolys="0">
<PointData>
<DataArray type="Float64" Name="Pressure" format="ascii">
 14710.166092 14710.166092 14710.166092 14701.217988 14602.265365 14370.517182 14178.657707 14025.857270 13788.907891 13377.330339 12903.265018 12468.262221 12000.821338 11471.103804 10939.367788 10397.332188 9791.595222 9106.165272 8376.658267 7637.994658 6910.281779 6183.537278 5454.478981 4771.418553 4146.631494 3562.115296 3067.012473 2673.252844 2300.372482 1932.981275 1548.475231 1182.741803 953.442577 844.983046 738.809989 582.054708 445.376909 354.962858 243.047469 113.884373 49.410700 33.747353 -18.196582 -108.996518 -152.562591 -134.352711 -127.647975 -207.806888 -355.235067 -486.763575 -612.043515 -780.095872 -946.913777 -1036.955023 -1048.228029 -1009.512579 -942.932302 -863.997498 -782.699227 -704.168882 -630.541332 -562.504654 -500.079766 -443.003869 -390.917155 -343.453219 -300.279264 -261.108619 -225.697938 -193.836744 -165.334438 -140.008084 -117.672907 -98.136322 -81.195482 -66.637839 -54.243925 -43.791480 -35.060153 -27.836136 -21.916253 -17.111243 -13.248103 -10.171478 -7.744185 -5.846998 -4.377850 -3.250614 -2.393607 -1.747954 -1.265913 -0.909247 -0.647696 -0.457594 -0.320639 -0.222835 -0.153599 -0.105008 -0.071198 -0.047868 -0.031899 -0.021048 -0.013717 -0.008782 -0.005461 -0.003219 -0.001656 -0.000776 -0.000619 -0.000619 -0.000619 14710.166092 14710.166092 14710.166092 14701.217988 14602.265365 14370.517182 14178.657707 14025.857270 13788.907891 13377.330339 12903.265018 12468.262221 12000.821338 11471.103804 10939.367788 10397.332188 9791.595222 9106.165272 8376.658267 7637.994658 6910.281779 6183.537278 5454.478981 4771.418553 4146.631494 3562.115296 3067.012473 2673.252844 2300.372482 1932.981275 1548.475231 1182.741803 953.442577 844.983046 738.809989 582.054708 445.376909 354.962858 243.047469 113.884373 49.410700 33.747353 -18.196582 -108.996518 -152.562591 -134.352711 -127.647975 -207.806888 -355.235067 -486.763575 -612.043515 -780.095872 -946.913777 -1036.955023 -1048.228029 -1009.512579 -942.932302 -863.997498 -782.699227 -704.168882 -630.541332 -562.504654 -500.079766 -443.003869 -390.917155 -343.453219 -300.279264 -261.108619 -225.697938 -193.836744 -165.334438 -140.008084 -117.672907 -98.136322 -81.195482 -66.637839 -54.243925 -43.791480 -35.060153 -27.836136 -21.916253 -17.111243 -13.248103 -10.171478 -7.744185 -5.846998 -4.377850 -3.250614 -2.393607 -1.747954 -1.265913 -0.909247 -0.647696 -0.457594 -0.320639 -0.222835 -0.153599 -0.105008 -0.071198 -0.047868 -0.031899 -0.021048 -0.013717 -0.008782 -0.005461 -0.003219 -0.001656 -0.000776 -0.000619 -0.000619 -0.000619 14710.166092 14710.166092 14710.166092 14701.217988 14602.265365 14370.517182 14178.657707 14025.857270 13788.907891 13377.330339 12903.265018 12468.262221 12000.821338 11471.103804 10939.367788 10397.332188 9791.595222 9106.165272 8376.658267 7637.994658 6910.281779 6183.537278 5454.478981 4771.418553 4146.631494 3562.115296 3067.012473 2673.252844 2300.372482 1932.981275 1548.475231 1182.741803 953.442577 844.983046 738.809989 582.054708 445.376909 354.962858 243.047469 113.884373 49.410700 33.747353 -18.196582 -108.996518 -152.562591 -134.352711 -127.647975 -207.806888 -355.235067 -486.763575 -612.043515 -780.095872 -946.913777 -1036.955023 -1048.228029 -1009.512579 -942.932302 -863.997498 -782.699227 -704.168882 -630.541332 -562.504654 -500.079766 -443.003869 -390.917155 -343.453219 -300.279264 -261.108619 -225.697938 -193.836744 -165.334438 -140.008084 -117.672907 -98.136322 -81.195482 -66.637839 -54.243925 -43.791480 -35.060153 -27.836136 -21.916253 -17.111243 -13.248103 -10.171478 -7.744185 -5.846998 -4.377850 -3.250614 -2.393607 -1.747954 -1.265913 -0.909247 -0.647696 -0.457594 -0.320639 -0.222835 -0.153599 -0.105008 -0.071198 -0.047868 -0.031899 -0.021048 -0.013717 -0.008782 -0.005461 -0.003219 -0.001656 -0.000776 -0.000619 -0.000619 -0.000619 14722.395748 14722.395748 14722.395748 14712.522372 14602.620356 14352.400411 14179.890795 14095.947113 13884.043150 13409.654586 12908.166100 12515.611360 12030.794823 11445.364940 10908.664877 10378.141797 9772.735274 9064.164002 8317.902239 7555.931189 6823.710866 6095.053090 5345.524409 4674.125337 4074.589418 3480.174359 2979.206953 2613.333645 2226.874075 1876.827034 1493.674887 1091.054906 878.324468 821.357958 739.620060 557.824011 414.966949 355.481256 243.799064 84.442638 28.459595 45.466704 -4.271408 -129.295348 -176.072210 -131.155989 -98.548489 -180.816941 -369.103392 -492.991620 -599.064554 -762.843442 -978.530022 -1068.462686 -1067.838449 -1020.995430 -949.059365 -866.819922 -783.832941 -704.577826 -630.654648 -562.502121 -500.034600 -442.945294 -390.856413 -343.394274 -300.223222 -261.055559 -225.647669 -193.789099 -165.289359 -139.965623 -117.633191 -98.099504 -81.161703 -66.607198 -54.216460 -43.767158 -35.038879 -27.817753 -21.900557 -17.098001 -13.237060 -10.162374 -7.736763 -5.841014 -4.373077 -3.246848 -2.390666 -1.745681 -1.264174 -0.907930 -0.646708 -0.456860 -0.320099 -0.222442 -0.153315 -0.104806 -0.071055 -0.047768 -0.031829 -0.020998 -0.013680 -0.008749 -0.005426 -0.003186 -0.001636 -0.000765 -0.000611 -0.000611 -0.000611 14851.497410 14851.497410 14851.497410 14826.556263 14519.448805 13896.928718 13956.378996 14919.178127 14991.107837 13597.449462 12974.946778 13593.366907 12501.865814 10829.515590 10308.200158 10026.310578 9442.197255 8475.364580 7553.685235 6452.435149 5710.727822 4994.266713 3899.972953 3419.750969 3403.646629 2444.917411 1758.613951 2019.469103 1156.940866 1308.611020 1051.245802 -264.077184 -69.771048 621.485923 966.554005 153.947960 -101.087276 509.026819 408.762923 -473.397756 -291.342816 317.549270 321.227740 -533.964878 -542.757177 -99.969472 395.896869 208.753988 -668.941066 -624.344761 -208.968649 -521.461874 -1388.073864 -1440.055345 -1286.235421 -1150.644505 -1017.657920 -895.186118 -794.992391 -708.540046 -631.729987 -562.452869 -499.573541 -442.356128 -390.247992 -342.804756 -299.663036 -260.525253 -225.145247 -193.312854 -164.838719 -139.541126 -117.236113 -97.731400 -80.824000 -66.300889 -53.941921 -43.524079 -34.826278 -27.634066 -21.743756 -16.965730 -13.126777 -10.071470 -7.662670 -5.781285 -4.325447 -3.209268 -2.361325 -1.723008 -1.246832 -0.894797 -0.636862 -0.449551 -0.314725 -0.218529 -0.150493 -0.102789 -0.069627 -0.046766 -0.031130 -0.020507 -0.013314 -0.008418 -0.005004 -0.002740 -0.001387 -0.000649 -0.000525 -0.000525 -0.000525 15023.553183 15023.553183 15023.553183 14956.973995 14081.767482 11648.630100 11207.131797 15437.271665 15470.881573 11261.659515 13609.066093 19117.568488 13290.982332 8287.294707 9346.478304 9244.640673 9206.403292 6884.330060 7411.620613 3628.370728 4081.417476 3724.000863 487.551633 1414.792985 3142.603169 975.827984 -331.110053 2814.852349 -2657.426726 421.791568 1019.816079 -3013.639410 -1712.666558 736.504239 2102.975492 -720.512418 -1442.859737 1177.723653 964.067734 -1754.243598 -1007.275681 963.489882 960.095098 -1370.917310 -1232.810626 -46.834642 1173.111580 732.263683 -1215.941646 -849.423716 273.769263 -632.659863 -2215.900484 -1958.277991 -1549.685268 -1326.736997 -1133.967616 -941.883174 -812.387222 -714.852182 -633.665658 -562.682124 -499.164473 -441.733494 -389.576240 -342.143431 -299.030396 -259.924464 -224.575084 -192.771848 -164.326472 -139.058412 -116.784497 -97.312735 -80.439963 -65.952642 -53.629903 -43.247932 -34.584874 -27.425605 -21.565910 -16.815799 -13.001849 -9.968563 -7.578852 -5.713765 -4.271642 -3.166848 -2.328231 -1.697455 -1.227301 -0.880020 -0.625793 -0.441339 -0.308692 -0.214140 -0.147330 -0.100531 -0.068030 -0.045645 -0.030347 -0.019952 -0.012887 -0.007972 -0.004168 -0.001952 -0.001008 -0.000506 -0.000418 -0.000418 -0.000418 -0.001602 -0.000824 -0.000453 -0.000404 -0.000404 -0.000404 -0.000991 -0.000590 -0.000355 -0.000323 -0.000323 -0.000323 -0.000449 -0.000330 -0.000233 -0.000219 -0.000219 -0.000219 -0.000223 -0.000182 -0.000147 -0.000142 -0.000142 -0.000142 -0.000117 -0.000103 -0.000091 -0.000089 -0.000089 -0.000089 -0.000063 -0.000059 -0.000055 -0.000055 -0.000055 -0.000055 -0.000035 -0.000034 -0.000033 -0.000033 -0.000033 -0.000033 -0.000020 -0.000020 -0.000020 -0.000020 -0.000020 -0.000020 -0.000011 -0.000012 -0.000012 -0.000012 -0.000012 -0.000012 -0.000007 -0.000007 -0.000007 -0.000007 -0.000007 -0.000007 -0.000004 -0.000004 -0.000004 -0.000004 -0.000004 -0.000004 -0.000002 -0.000002 -0.000002 -0.000002 -0.000002 -0.000002 -0.000001 -0.000001 -0.000001 -0.000001 -0.000001 -0.000001 -0.000001 -0.000001 -0.000001 -0.000001 -0.000001 -0.000001 -0.000000 -0.000000 -0.000000 -0.000000 -0.000000 -0.000000 -0.000000 -0.000000 -0.000000 -0.000000 -0.000000 -0.000000 -0.000000 -0.000000 -0.000000 -0.000000 -0.000000 -0.000000 -0.000000 -0.000000 -0.000000 -0.000000 -0.000000 -0.000000 -0.000000 -0.000000 -0.000000 -0.000000 -0.000000 -0.000000 -0.000000 -0.000000 -0.000000 -0.000000 -0.000000 -0.000000 -0.000000 -0.000000 -0.000000 -0.000000 -0.000000 -0.000000 -0.000000 -0.000000 -0.000000 -0.000000 -0.000000 -0.000000 -0.000000 -0.000000 -0.000000 -0.000000 -0.000000 -0.000000 -0.000000 -0.000000 -0.000000 -0.000000 -0.000000 -0.000000 -0.000000 -0.000000 -0.000000 -0.000000 -0.000000 -0.000000 -0.000000 -0.000000 -0.000000 -0.000000 -0.000000 -0.000000 -0.000000 -0.000000 -0.000000 -0.000000 -0.000000 -0.000000 -0.000000 -0.000000 -0.000000 -0.000000 -0.000000 -0.000000 -0.000000 -0.000000 -0.000000 -0.000000 -0.000000 -0.000000 -0.000000 -0.000000 -0.000000 -0.000000 -0.000000 -0.000000 -0.000000 -0.000000 -0.000000 -0.000000 -0.000000 -0.000000 -0.000000 -0.000000 -0.000000 -0.000000 -0.000000 -0.000000 -0.000000 -0.000000 -0.000000 -0.000000 -0.000000 -0.000000 -0.000000 -0.000000 -0.000000 -0.000000 -0.000000 -0.000000 -0.000000 -0.000000 -0.000000 -0.000000 -0.000000 -0.000000 -0.000000 -0.000000 -0.000000 -0.000000 -0.000000 -0.000000 -0.000000 -0.000000 -0.000000 -0.000000 -0.000000 -0.000000 -0.000000 -0.000000 -0.000000 -0.000000 -0.000000 -0.000000 -0.000000 -0.000000 -0.000000 -0.000000 -0.000000 -0.000000 -0.000000 -0.000000 -0.000000 -0.000000 -0.000000 -0.000000 -0.000000 -0.000000 -0.000000 -0.000000 -0.000000 -0.000000 -0.000000 -0.000000 -0.000000 -0.000000 -0.000000 -0.000000 -0.000000 -0.000000 -0.000000 -0.000000 -0.000000 -0.000000 -0.000000 -0.000000 -0.000000 -0.000000 -0.000000 -0.000000 -0.000000 -0.000000 -0.000000 -0.000000 -0.000000 -0.000000 -0.000000 -0.000000 -0.000000 -0.000000 -0.000000 -0.000000 -0.000000 -0.000000 -0.000000 -0.000000 -0.000000 -0.000000 -0.000000 -0.000000 -0.000000 -0.000000 -0.000000 -0.000000 -0.000000 -0.000000 -0.000000 -0.000000 -0.000000 -0.000000 -0.000000 -0.000000 -0.000000 0.000000 0.000000 0.000000 -0.000000 -0.000000 -0.000000 0.000000 0.000000 0.000000 -0.000000 -0.000000 -0.000000 0.000000 0.000000 0.000000 -0.000000 -0.000000 -0.000000 0.000000 0.000000 0.000000 -0.000000 -0.000000 -0.000000 0.000000 0.000000 0.000000 -0.000000 -0.000000 -0.000000 0.000000 0.000000 0.000000 -0.000000 -0.000000 -0.000000 0.000000 0.000000 0.000000 -0.000000 -0.000000 -0.000000 0.000000 0.000000 0.000000 -0.000000 -0.000000 -0.000000 0.000000 0.000000 0.000000 -0.000000 -0.000000 -0.000000 0.000000 0.000000 0.000000 -0.000000 -0.000000 -0.000000 0.000000 0.000000 0.000000 -0.000000 -0.000000 -0.000000 0.000000 0.000000 0.000000 -0.000000 -0.000000 -0.000000 0.000000 0.000000 0.000000 -0.000000 -0.000000 -0.000000 0.000000 0.000000 0.000000 -0.000000 -0.000000 -0.000000 0.000000 0.000000 0.000000 -0.000000 -0.000000 -0.000000 0.000000 0.000000 0.000000 -0.000000 -0.000000 -0.000000 0.000000 0.000000 0.000000 -0.000000 -0.000000 -0.000000 0.000000 0.000000 0.000000 -0.000000 -0.000000 -0.000000 0.000000 0.000000 0.000000 -0.000000 -0.000000 -0.000000 0.000000 0.000000 0.000000 -0.000000 -0.000000 -0.000000 0.000000 0.000000 0.000000 -0.000000 -0.000000 -0.000000 0.000000 0.000000 0.000000 -0.000000 -0.000000 -0.000000 0.000000 0.000000 0.000000 -0.000000 -0.000000 -0.000000 0.000000 0.000000 0.000000 -0.000000 -0.000000 -0.000000 0.000000 0.000000 0.000000 -0.000000 -0.000000 -0.000000 0.000000 0.000000 0.000000 -0.000000 -0.000000 -0.000000 0.000000 0.000000 0.000000 -0.000000 -0.000000 -0.000000 0.000000 0.000000 0.000000 -0.000000 -0.000000 -0.000000 0.000000 0.000000 0.000000 -0.000000 -0.000000 -0.000000 0.000000 0.000000 0.000000 -0.000000 -0.000000 -0.000000 0.000000 0.000000 0.000000 -0.000000 -0.000000 -0.000000 0.000000 0.000000 0.000000 -0.000000 -0.000000 -0.000000 0.000000 0.000000 0.000000 -0.000000 -0.000000 -0.000000 0.000000 0.000000 0.000000 -0.000000 -0.000000 -0.000000 0.000000 0.000000 0.000000 -0.000000 -0.000000 -0.000000 0.000000 0.000000 0.000000 -0.000000 -0.000000 -0.000000 0.000000 0.000000 0.000000 -0.000000 -0.000000 -0.000000 0.000000 0.000000 0.000000 -0.000000 -0.000000 -0.000000 0.000000 0.000000 0.000000 -0.000000 -0.000000 -0.000000 0.000000 0.000000 0.000000 -0.000000 -0.000000 -0.000000 0.000000 0.000000 0.000000 -0.000000 -0.000000 -0.000000 0.000000 0.000000 0.000000 -0.000000 -0.000000 -0.000000 0.000000 0.000000 0.000000 -0.000000 -0.000000 -0.000000 0.000000 0.000000 0.000000 -0.000000 -0.000000 -0.000000 0.000000 0.000000 0.000000 -0.000000 -0.000000 -0.000000 0.000000 0.000000 0.000000 -0.000000 -0.000000 -0.000000 0.000000 0.000000 0.000000 -0.000000 -0.000000 -0.000000 0.000000 0.000000 0.000000 -0.000000 -0.000000 -0.000000 0.000000 0.000000 0.000000 -0.000000 -0.000000 -0.000000 0.000000 0.000000 0.000000 -0.000000 -0.000000 -0.000000 0.000000 0.000000 0.000000 -0.000000 -0.000000 -0.000000 0.000000 0.000000 0.000000 -0.000000 -0.000000 -0.000000 0.000000 0.000000 0.000000 -0.000000 -0.000000 -0.000000 0.000000 0.000000 0.000000 -0.000000 -0.000000 -0.000000 0.000000 0.000000 0.000000 -0.000000 -0.000000 -0.000000 0.000000 0.000000 0.000000 -0.000000 -0.000000 -0.000000 0.000000 0.000000 0.000000 -0.000000 -0.000000 -0.000000 0.000000 0.000000 0.000000 -0.000000 -0.000000 -0.000000 0.000000 0.000000 0.000000 -0.000000 -0.000000 -0.000000 0.000000 0.000000 0.000000 -0.000000 -0.000000 -0.000000 0.000000 0.000000 0.000000 -0.000000 -0.000000 -0.000000 0.000000 0.000000 0.000000 -0.000000 -0.000000 -0.000000 0.000000 0.000000 0.000000 -0.000000 -0.000000 -0.000000 0.000000 0.000000 0.000000 -0.000000 -0.000000 -0.000000 0.000000 0.000000 0.000000 -0.000000 -0.000000 -0.000000 0.000000 0.000000 0.000000 -0.000000 -0.000000 -0.000000 0.000000 0.000000 0.000000 -0.000000 -0.000000 -0.000000 0.000000 0.000000 0.000000 -0.000000 -0.000000 -0.000000 0.000000 0.000000 0.000000 -0.000000 -0.000000 -0.000000 0.000000 0.000000 0.000000 -0.000000 -0.000000 -0.000000 0.000000 0.000000 0.000000 -0.000000 -0.000000 -0.000000 0.000000 0.000000 0.000000 -0.000000 -0.000000 -0.000000 0.000000 0.000000 0.000000 -0.000000 -0.000000 -0.000000 0.000000 0.000000 0.000000 -0.000000 -0.000000 -0.000000 0.000000 0.000000 0.000000 -0.000000 -0.000000 -0.000000 0.000000 0.000000 0.000000 -0.000000 -0.000000 -0.000000 0.000000 0.000000 0.000000 -0.000000 -0.000000 -0.000000 0.000000 0.000000 0.000000 -0.000000 -0.000000 -0.000000 0.000000 0.000000 0.000000 -0.000000 -0.000000 -0.000000 0.000000 0.000000 0.000000 -0.000000 -0.000000 -0.000000 0.000000 0.000000 0.000000 -0.000000 -0.000000 -0.000000 0.000000 0.000000 0.000000 -0.000000 -0.000000 -0.000000 0.000000 0.000000 0.000000 -0.000000 -0.000000 -0.000000 0.000000 0.000000 0.000000 -0.000000 -0.000000 -0.000000 0.000000 0.000000 0.000000 -0.000000 -0.000000 -0.000000 0.000000 0.000000 0.000000 -0.000000 -0.000000 -0.000000 0.000000 0.000000 0.000000 -0.000000 -0.000000 -0.000000 0.000000 0.000000 0.000000 -0.000000 -0.000000 -0.000000 0.000000 0.000000 0.000000 -0.000000 -0.000000 -0.000000 0.000000 0.000000 0.000000 -0.000000 -0.000000 -0.000000 0.000000 0.000000 0.000000 -0.000000 -0.000000 -0.000000 0.000000 0.000000 0.000000 -0.000000 -0.000000 -0.000000 0.000000 0.000000 0.000000 -0.000000 -0.000000 -0.000000 0.000000 0.000000 0.000000 -0.000000 -0.000000 -0.000000 0.000000 0.000000 0.000000 -0.000000 -0.000000 -0.000000 0.000000 0.000000 0.000000 -0.000000 -0.000000 -0.000000 0.000000 0.000000 0.000000 -0.000000 -0.000000 -0.000000 0.000000 0.000000 0.000000 -0.000000 -0.000000 -0.000000 0.000000 0.000000 0.000000 -0.000000 -0.000000 -0.000000 0.000000 0.000000 0.000000 -0.000000 -0.000000 -0.000000 0.000000 0.000000 0.000000 -0.000000 -0.000000 -0.000000 0.000000 0.000000 0.000000 -0.000000 -0.000000 -0.000000 0.000000 0.000000 0.000000 -0.000000 -0.000000 -0.000000 0.000000 0.000000 0.000000 -0.000000 -0.000000 -0.000000 0.000000 0.000000 0.000000 -0.000000 -0.000000 -0.000000 0.000000 0.000000 0.000000 -0.000000 -0.000000 -0.000000 0.000000 0.000000 0.000000 -0.000000 -0.000000 -0.000000 0.000000 0.000000 0.000000 -0.000000 -0.000000 -0.000000 0.000000 0.000000 0.000000 -0.000000 -0.000000 -0.000000 0.000000 0.000000 0.000000 -0.000000 -0.000000 -0.000000 0.000000 0.000000 0.000000 -0.000000 -0.000000 -0.000000 -0.000000 -0.000000 -0.000000 -0.000000 -0.000000 -0.000000 -0.000000 -0.000000 -0.000000 -0.000000 -0.000000 -0.000000 -0.000000 -0.000000 -0.000000 -0.000000 -0.000000 -0.000000 -0.000000 -0.000000 -0.000000 -0.000000 -0.000000 -0.000000 -0.000000 -0.000000 -0.000000 0.000000 -0.000000 -0.000000 -0.000000 -0.000000 -0.000000 0.000000 -0.000000 -0.000000 -0.000000 -0.000000 -0.000000 0.000000 -0.000000 -0.000000 -0.000000 -0.000000 -0.000000 0.000000 -0.000000 -0.000000 -0.000000 -0.000000 -0.000000 0.000000 -0.000000 -0.000000 -0.000000 -0.000000 -0.000000 0.000000 -0.000000 -0.000000 -0.000000 -0.000000 -0.000000 0.000000 -0.000000 -0.000000 -0.000000 -0.000000 -0.000000 0.000000 -0.000000 -0.000000 -0.000000 -0.000000 -0.000000 0.000000 -0.000000 -0.000000 -0.000000 -0.000000 -0.000000 0.000000 -0.000000 -0.000000 -0.000000 -0.000000 -0.000000 0.000000 -0.000000 -0.000000 -0.000000 -0.000000 -0.000000 0.000000 -0.000000 -0.000000 -0.000000 -0.000000 -0.000000 0.000000 -0.000000 -0.000000 -0.000000 -0.000000 -0.000000 0.000000 -0.000000 -0.000000 -0.000000 -0.000000 -0.000000 0.000000 -0.000000 -0.000000 -0.000000 -0.000000 -0.000000 0.000000 -0.000000 -0.000000 -0.000000 -0.000000 -0.000000 0.000000 -0.000000 -0.000000 -0.000000 -0.000000 -0.000000 0.000000 -0.000000 -0.000000 -0.000000 -0.000000 -0.000000 0.000000 -0.000000 -0.000000 -0.000000 -0.000000 -0.000000 0.000000 -0.000000 -0.000000 -0.000000 -0.000000 -0.000000 0.000000 -0.000000 -0.000000 -0.000000 -0.000000 -0.000000 0.000000 -0.000000 -0.000000 -0.000000 -0.000000 -0.000000 0.000000 -0.000000 -0.000000 -0.000000 -0.000000 -0.000000 0.000000 -0.000000 -0.000000 -0.000000 -0.000000 -0.000000 0.000000 -0.000000 -0.000000 -0.000000 -0.000000 -0.000000 0.000000 -0.000000 -0.000000 -0.000000 -0.000000 -0.000000 0.000000 -0.000000 -0.000000 -0.000000 -0.000000 -0.000000 0.000000 -0.000000 -0.000000 -0.000000 -0.000000 -0.000000 0.000000 -0.000000 -0.000000 -0.000000 -0.000000 -0.000000 0.000000 -0.000000 -0.000000 -0.000000 -0.000000 -0.000000 0.000000 -0.000000 -0.000000 -0.000000 -0.000000 -0.000000 0.000000 -0.000000 -0.000000 -0.000000 -0.000000 -0.000000 0.000000 -0.000000 -0.000000 -0.000000 -0.000000 -0.000000 0.000000 -0.000000 -0.000000 -0.000000 -0.000000 -0.000000 -0.000000 -0.000000 0.000000 0.000000 0.000000 0.000000 12279.976332 12279.976332 12279.976332 12333.195261 13032.863346 14314.418693 15443.274188 16628.829192 16562.987322 16022.772794 14364.048859 14880.197780 14459.894972 12205.704530 12709.090414 11876.660532 9867.262180 9453.122084 9126.875613 7304.151848 5706.167154 4426.908559 3624.993064 2605.056065 1304.726452 841.664841 1058.060254 1141.431363 1107.181007 1009.614710 884.685770 754.634096 631.599022 521.245401 425.436887 343.988539 275.738114 219.157295 172.669834 134.796242 104.205439 79.722660 60.320563 45.106202 33.308597 24.267794 17.424937 12.312676 8.545491 5.809897 3.854676 2.481438 1.535795 0.899356 0.482685 0.219247 0.060342 -0.029067 -0.073715 -0.090696 -0.091539 -0.083794 -0.072222 -0.059686 -0.047777 -0.037276 -0.028465 -0.021335 -0.015727 -0.011420 -0.008178 -0.005781 -0.004036 -0.002785 -0.001900 -0.001282 -0.000856 -0.000565 -0.000370 -0.000239 -0.000153 -0.000097 -0.000061 -0.000038 -0.000024 -0.000014 -0.000009 -0.000005 -0.000003 -0.000002 -0.000001 -0.000001 -0.000000 -0.000000 -0.000000 -0.000000 -0.000000 -0.000000 -0.000000 -0.000000 -0.000000 -0.000000 -0.000000 -0.000000 -0.000000 -0.000000 -0.000000 0.000000 -0.000000 -0.000000 -0.000000 12024.110921 12024.110921 12024.110921 12039.003809 12455.701025 13484.912767 14811.498254 17386.782892 15894.477331 12895.970086 11308.248669 11249.178530 10891.285332 9829.710981 9711.717841 9177.887921 7978.315838 7751.601632 6980.193343 5641.589083 4524.806201 3626.666164 3047.973089 2377.061442 1802.511888 1468.909439 1346.574308 1268.665208 1163.507396 1034.267014 895.889461 760.418718 635.258748 524.022070 427.756743 345.987723 277.464809 220.639264 173.932098 135.863394 105.100813 80.467693 60.934731 45.607236 33.712712 24.589810 17.678303 12.509433 8.696248 5.923820 3.939538 2.543709 1.580760 0.931265 0.504892 0.234364 0.070365 -0.022634 -0.069757 -0.088404 -0.090334 -0.083271 -0.072108 -0.059796 -0.047995 -0.037532 -0.028716 -0.021561 -0.015919 -0.011577 -0.008302 -0.005876 -0.004108 -0.002838 -0.001939 -0.001310 -0.000876 -0.000579 -0.000379 -0.000246 -0.000158 -0.000100 -0.000063 -0.000039 -0.000024 -0.000015 -0.000009 -0.000005 -0.000003 -0.000002 -0.000001 -0.000001 -0.000000 -0.000000 -0.000000 -0.000000 -0.000000 -0.000000 -0.000000 -0.000000 -0.000000 -0.000000 -0.000000 -0.000000 -0.000000 -0.000000 -0.000000 -0.000000 -0.000000 -0.000000 -0.000000 11912.433845 11912.433845 11912.433845 11902.497597 11824.786060 11773.038485 11804.551237 12148.548391 11551.417107 10663.639279 10039.228054 9535.621405 9038.273903 8500.372590 7966.090990 7374.914966 6736.396108 6126.175047 5483.181915 4782.941776 4098.474971 3486.846330 2957.150838 2487.039084 2087.774570 1782.526708 1558.576692 1378.486902 1214.632656 1057.244035 906.644843 766.237199 639.143948 527.089520 430.374775 348.266212 279.441356 222.338951 175.381044 137.088869 106.129288 81.323698 61.640614 46.183346 34.177637 24.960523 17.970198 12.736297 8.870224 6.055413 4.037663 2.615789 1.632873 0.968294 0.530704 0.251965 0.082062 -0.015104 -0.065107 -0.085694 -0.088895 -0.082633 -0.071950 -0.059906 -0.048235 -0.037818 -0.029001 -0.021818 -0.016139 -0.011757 -0.008445 -0.005986 -0.004191 -0.002900 -0.001984 -0.001342 -0.000898 -0.000595 -0.000390 -0.000253 -0.000163 -0.000104 -0.000065 -0.000041 -0.000025 -0.000015 -0.000009 -0.000006 -0.000003 -0.000002 -0.000001 -0.000001 -0.000000 -0.000000 -0.000000 -0.000000 -0.000000 -0.000000 -0.000000 -0.000000 -0.000000 -0.000000 -0.000000 -0.000000 -0.000000 -0.000000 -0.000000 0.000000 0.000000 0.000000 0.000000 11899.096603 11899.096603 11899.096603 11886.794263 11761.214901 11509.146510 11366.646553 11237.216001 10898.394772 10386.006452 9859.460575 9364.129030 8862.597776 8335.277347 7789.159346 7205.162246 6592.800948 5981.663033 5351.644532 4698.567598 4061.068243 3477.295168 2961.270442 2509.220971 2127.568543 1824.053400 1588.132771 1394.859167 1222.503811 1060.841779 908.364176 767.198212 639.808929 527.627691 430.840018 348.673500 279.795599 222.643934 175.641174 137.308936 106.314008 81.477465 61.767439 46.286881 34.261217 25.027192 18.022714 12.777132 8.901556 6.079125 4.055354 2.628793 1.642281 0.974984 0.535371 0.255151 0.084182 -0.013737 -0.064261 -0.085200 -0.088631 -0.082515 -0.071919 -0.059924 -0.048277 -0.037869 -0.029051 -0.021864 -0.016179 -0.011789 -0.008470 -0.006006 -0.004206 -0.002911 -0.001992 -0.001348 -0.000903 -0.000598 -0.000392 -0.000255 -0.000164 -0.000104 -0.000066 -0.000041 -0.000025 -0.000016 -0.000009 -0.000006 -0.000003 -0.000002 -0.000001 -0.000001 -0.000000 -0.000000 -0.000000 -0.000000 -0.000000 -0.000000 -0.000000 -0.000000 -0.000000 -0.000000 -0.000000 -0.000000 -0.000000 -0.000000 0.000000 0.000000 0.000000 0.000000 0.000000 11899.096603 11899.096603 11899.096603 11886.794263 11761.214901 11509.146510 11366.646553 11237.216001 10898.394772 10386.006452 9859.460575 9364.129030 8862.597776 8335.277347 7789.159346 7205.162246 6592.800948 5981.663033 5351.644532 4698.567598 4061.068243 3477.295168 2961.270442 2509.220971 2127.568543 1824.053400 1588.132771 1394.859167 1222.503811 1060.841779 908.364176 767.198212 639.808929 527.627691 430.840018 348.673500 279.795599 222.643934 175.641174 137.308936 106.314008 81.477465 61.767439 46.286881 34.261217 25.027192 18.022714 12.777132 8.901556 6.079125 4.055354 2.628793 1.642281 0.974984 0.535371 0.255151 0.084182 -0.013737 -0.064261 -0.085200 -0.088631 -0.082515 -0.071919 -0.059924 -0.048277 -0.037869 -0.029051 -0.021864 -0.016179 -0.011789 -0.008470 -0.006006 -0.004206 -0.002911 -0.001992 -0.001348 -0.000903 -0.000598 -0.000392 -0.000255 -0.000164 -0.000104 -0.000066 -0.000041 -0.000025 -0.000016 -0.000009 -0.000006 -0.000003 -0.000002 -0.000001 -0.000001 -0.000000 -0.000000 -0.000000 -0.000000 -0.000000 -0.000000 -0.000000 -0.000000 -0.000000 -0.000000 -0.000000 -0.000000 -0.000000 -0.000000 0.000000 0.000000 0.000000 0.000000 0.000000 11899.096603 11899.096603 11899.096603 11886.794263 11761.214901 11509.146510 11366.646553 11237.216001 10898.394772 10386.006452 9859.460575 9364.129030 8862.597776 8335.277347 7789.159346 7205.162246 6592.800948 5981.663033 5351.644532 4698.567598 4061.068243 3477.295168 2961.270442 2509.220971 2127.568543 1824.053400 1588.132771 1394.859167 1222.503811 1060.841779 908.364176 767.198212 639.808929 527.627691 430.840018 348.673500 279.795599 222.643934 175.641174 137.308936 106.314008 81.477465 61.767439 46.286881 34.261217 25.027192 18.022714 12.777132 8.901556 6.079125 4.055354 2.628793 1.642281 0.974984 0.535371 0.255151 0.084182 -0.013737 -0.064261 -0.085200 -0.088631 -0.082515 -0.071919 -0.059924 -0.048277 -0.037869 -0.029051 -0.021864 -0.016179 -0.011789 -0.008470 -0.006006 -0.004206 -0.002911 -0.001992 -0.001348 -0.000903 -0.000598 -0.000392 -0.000255 -0.000164 -0.000104 -0.000066 -0.000041 -0.000025 -0.000016 -0.000009 -0.000006 -0.000003 -0.000002 -0.000001 -0.000001 -0.000000 -0.000000 -0.000000 -0.000000 -0.000000 -0.000000 -0.000000 -0.000000 -0.000000 -0.000000 -0.000000 -0.000000 -0.000000 -0.000000 0.000000 0.000000 0.000000 0.000000 0.000000 15044.363625 15044.363625 15044.363625 14970.387019 13877.727741 10903.708591 10238.571808 15222.641433 15531.312805 10853.112401 13395.721234 19958.513784 13291.730469 7507.883558 9162.794281 8906.776239 9142.884974 6481.331571 7317.717342 2832.758169 4181.944180 3659.361726 -249.597524 823.855452 2946.062440 864.152877 -356.790123 3667.398691 -4015.285523 3.514756 1087.198529 -3405.836540 -1921.462365 815.774420 2352.204569 -842.726482 -1703.479496 1304.590322 1060.882154 -1931.388795 -1107.612393 1050.609404 1032.081668 -1472.409978 -1312.506712 -42.336815 1234.980980 770.747351 -1258.350278 -872.527620 252.254107 -758.099574 -2331.117621 -2002.458436 -1569.444627 -1342.285823 15190.047199 15190.047199 15190.047199 15055.296949 13719.300460 11919.357550 15851.723697 13494.585674 15794.477272 10555.149017 15818.903295 12637.196980 14606.306117 15068.459404 15062.840733 16871.319130 10550.390334 7763.859373 15762.080836 15656.893616 14115.323157 14575.539902 16073.711474 17414.567172 16634.910889 9002.443275 17428.349075 11337.173772 12936.388562 14759.495327 19180.982456 16255.480177 14472.164860 18859.066269 18868.910168 15026.189673 21228.468191 19331.482649 16183.777811 16862.796359 12866.452329 16030.234260 14964.169538 15017.978018 13722.369178 16275.202460 14207.103069 13653.880837 12966.675863 10700.367904 13510.600146 7826.426129 13554.030644 -297.661697 108.411531 -102.776537 15536.694482 15536.694482 15536.694482 15438.394566 15832.174220 18863.590741 15434.464251 17374.785227 15338.869680 17880.103412 14034.640756 17310.021359 12130.521509 14248.240123 13451.242111 14191.253770 15436.211335 15193.286874 13632.657934 14084.097559 14795.498023 13611.747727 12490.176896 12635.514009 14577.199536 13858.414281 15564.025801 21363.034103 14497.994097 15122.643543 12662.932707 15226.233646 10989.986570 17411.943250 17221.907154 13611.789382 12908.797107 12735.351045 15507.375032 8861.909991 8785.929948 9733.474636 11393.497375 10889.054163 9317.492322 9598.690115 12237.465585 14125.837789 9566.370119 7813.546933 4895.899625 5000.540655 1143.603387 2452.740459 93.243955 143.398028 16108.472389 16108.472389 16108.472389 16125.279554 16387.244474 15543.458583 20111.900496 20494.951630 16724.816483 16797.779501 17694.599998 14523.031760 14748.024546 18134.374292 15233.655412 12056.553326 15328.147558 15883.720996 12796.254181 14987.487519 16443.759216 14424.306945 13404.826680 12760.610780 15835.312944 15289.801686 15171.725196 14119.959109 11480.691664 14545.790207 9646.006912 16151.824574 11634.253120 9402.957806 7666.519971 10430.154139 7869.214256 11597.781933 12356.496774 8221.335337 7721.883236 10603.338484 6328.228220 10232.074745 10643.315827 8242.919646 6124.965190 7823.959075 4923.102415 8196.809894 4228.151213 5983.937674 -1841.184564 2151.038903 698.323845 -549.720311 16820.051322 16820.051322 16820.051322 16697.007375 16878.067867 16967.849835 18108.755909 16084.555718 13181.966162 20439.365021 15166.520551 16312.694808 17981.863694 16712.163615 16207.276915 17940.857243 16601.499749 16929.158915 15528.343496 14463.420617 14535.632765 13654.651490 13877.796947 14806.789544 12931.312181 11999.065813 11094.736059 10499.405067 8577.119272 10861.199243 10743.738778 11553.743155 10013.094431 9744.802355 8985.780387 8127.485354 7199.340991 9099.050449 8713.740277 8936.313197 9124.326513 7937.298157 7681.491551 6963.060031 5134.888893 5435.656432 5398.947837