<VTKFile type="PolyData">
<PolyData>
<Piece NumberOfPoints="8632" NumberOfVerts="8632" NumberOfLines="0" NumberOfStrips="0" NumberOfPolys="0">
<PointData>
<DataArray type="Float64" Name="Pressure" format="ascii">
 1787.653521 1787.653521 1787.653521 1835.452981 2350.486947 3543.995335 4467.799928 5002.506886 5206.104241 5211.857577 5114.698392 4959.019242 4769.352085 4563.215014 4351.338088 4138.976321 3928.497451 3721.276218 3518.520211 3321.132183 3129.461989 2943.283791 2761.946111 2584.611100 2410.551445 2239.405875 2071.274346 1906.636015 1746.163727 1590.558910 1440.502612 1296.684892 1159.802011 1030.475642 909.100977 795.726299 690.059138 591.634006 500.090330 415.423069 338.069075 268.781584 208.335802 157.215098 115.498404 83.159715 59.994028 44.989796 40.485461 65.119593 122.306625 103.687909 -41.156519 -208.091401 -416.307001 -564.758246 -554.828413 -443.952022 -317.722621 -213.274298 -136.611506 -83.851512 -49.288005 -27.705231 -14.878600 -7.630781 -3.737109 -1.747615 -0.780308 -0.332611 -0.135326 -0.052543 -0.019465 -0.006879 -0.002319 -0.000745 -0.000229 -0.000067 -0.000019 -0.000005 -0.000001 -0.000000 -0.000000 -0.000000 -0.000000 -0.000000 -0.000000 -0.000000 -0.000000 -0.000000 -0.000000 -0.000000 -0.000000 -0.000000 -0.000000 -0.000000 -0.000000 -0.000000 -0.000000 -0.000000 -0.000000 -0.000000 -0.000000 -0.000000 -0.000000 -0.000000 -0.000000 -0.000000 -0.000000 -0.000000 -0.000000 1787.653521 1787.653521 1787.653521 1835.452981 2350.486947 3543.995335 4467.799928 5002.506886 5206.104241 5211.857577 5114.698392 4959.019242 4769.352085 4563.215014 4351.338088 4138.976321 3928.497451 3721.276218 3518.520211 3321.132183 3129.461989 2943.283791 2761.946111 2584.611100 2410.551445 2239.405875 2071.274346 1906.636015 1746.163727 1590.558910 1440.502612 1296.684892 1159.802011 1030.475642 909.100977 795.726299 690.059138 591.634006 500.090330 415.423069 338.069075 268.781584 208.335802 157.215098 115.498404 83.159715 59.994028 44.989796 40.485461 65.119593 122.306625 103.687909 -41.156519 -208.091401 -416.307001 -564.758246 -554.828413 -443.952022 -317.722621 -213.274298 -136.611506 -83.851512 -49.288005 -27.705231 -14.878600 -7.630781 -3.737109 -1.747615 -0.780308 -0.332611 -0.135326 -0.052543 -0.019465 -0.006879 -0.002319 -0.000745 -0.000229 -0.000067 -0.000019 -0.000005 -0.000001 -0.000000 -0.000000 -0.000000 -0.000000 -0.000000 -0.000000 -0.000000 -0.000000 -0.000000 -0.000000 -0.000000 -0.000000 -0.000000 -0.000000 -0.000000 -0.000000 -0.000000 -0.000000 -0.000000 -0.000000 -0.000000 -0.000000 -0.000000 -0.000000 -0.000000 -0.000000 -0.000000 -0.000000 -0.000000 -0.000000 1787.653521 1787.653521 1787.653521 1835.452981 2350.486947 3543.995335 4467.799928 5002.506886 5206.104241 5211.857577 5114.698392 4959.019242 4769.352085 4563.215014 4351.338088 4138.976321 3928.497451 3721.276218 3518.520211 3321.132183 3129.461989 2943.283791 2761.946111 2584.611100 2410.551445 2239.405875 2071.274346 1906.636015 1746.163727 1590.558910 1440.502612 1296.684892 1159.802011 1030.475642 909.100977 795.726299 690.059138 591.634006 500.090330 415.423069 338.069075 268.781584 208.335802 157.215098 115.498404 83.159715 59.994028 44.989796 40.485461 65.119593 122.306625 103.687909 -41.156519 -208.091401 -416.307001 -564.758246 -554.828413 -443.952022 -317.722621 -213.274298 -136.611506 -83.851512 -49.288005 -27.705231 -14.878600 -7.630781 -3.737109 -1.747615 -0.780308 -0.332611 -0.135326 -0.052543 -0.019465 -0.006879 -0.002319 -0.000745 -0.000229 -0.000067 -0.000019 -0.000005 -0.000001 -0.000000 -0.000000 -0.000000 -0.000000 -0.000000 -0.000000 -0.000000 -0.000000 -0.000000 -0.000000 -0.000000 -0.000000 -0.000000 -0.000000 -0.000000 -0.000000 -0.000000 -0.000000 -0.000000 -0.000000 -0.000000 -0.000000 -0.000000 -0.000000 -0.000000 -0.000000 -0.000000 -0.000000 -0.000000 -0.000000 1888.887975 1888.887975 1888.887975 1941.666818 2535.192991 3915.869832 4945.054217 5508.405054 5699.954533 5691.398839 5586.815521 5421.455345 5217.609119 4996.068334 4769.569388 4544.975630 4324.637576 4109.154170 3899.120371 3694.811192 3496.315239 3303.331644 3115.093266 2930.446982 2748.230248 2567.679695 2388.688670 2211.785776 2037.854620 1867.825715 1702.553980 1542.868639 1389.657182 1243.899705 1106.500364 977.990628 858.286824 746.700656 642.277458 544.316054 452.791535 368.446624 292.505647 226.110539 170.013182 124.827760 91.250187 66.783461 51.940164 73.287360 165.578092 141.075759 -71.524724 -234.588479 -493.886442 -679.532142 -634.833804 -481.964339 -332.624211 -218.700669 -138.465041 -84.421595 -49.420289 -27.703855 -14.848155 -7.603052 -3.718475 -1.736779 -0.774585 -0.329810 -0.134042 -0.051989 -0.019239 -0.006792 -0.002287 -0.000734 -0.000225 -0.000066 -0.000018 -0.000005 -0.000001 -0.000000 -0.000000 -0.000000 -0.000000 -0.000000 -0.000000 -0.000000 0.000000 -0.000000 0.000000 0.000000 -0.000000 0.000000 -0.000000 0.000000 0.000000 -0.000000 0.000000 -0.000000 0.000000 0.000000 -0.000000 -0.000000 -0.000000 -0.000000 -0.000000 -0.000000 -0.000000 -0.000000 -0.000000 3033.325235 3033.325235 3033.325235 3194.200192 5039.778350 8879.913471 11063.450392 11897.210756 11964.506600 11825.102577 11659.189954 11367.847869 11008.097430 10605.442904 10178.294475 9768.338002 9400.089359 9078.208903 8789.332966 8513.067672 8235.703246 7952.329482 7662.668994 7367.604077 7067.100810 6759.377162 6442.151864 6114.222001 5776.399570 5432.513397 5087.605538 4744.632812 4404.082513 4066.834201 3737.178553 3422.556135 3129.964235 2861.462411 2611.994041 2371.182690 2128.321783 1877.099345 1619.226364 1360.050118 1111.187880 875.668603 696.994623 527.664326 350.283340 99.057345 1256.634348 1374.577032 -934.013747 82.204288 -1602.415482 -2318.828340 -1601.758413 -869.726288 -479.909419 -271.432682 -156.334947 -89.868056 -50.650994 -27.659153 -14.535224 -7.324901 -3.533323 -1.629740 -0.718312 -0.302375 -0.121517 -0.046606 -0.017054 -0.005953 -0.001982 -0.000629 -0.000190 -0.000055 -0.000015 -0.000004 -0.000001 -0.000000 -0.000000 -0.000000 -0.000000 -0.000000 -0.000000 -0.000000 -0.000000 0.000000 -0.000000 -0.000000 -0.000000 -0.000000 0.000000 -0.000000 -0.000000 -0.000000 -0.000000 0.000000 -0.000000 -0.000000 0.000000 -0.000000 -0.000000 -0.000000 -0.000000 -0.000000 -0.000000 -0.000000 -0.000000 4799.452752 4799.452752 4799.452752 5200.855202 9762.372583 19230.716276 22710.503130 23464.215205 23095.355209 22915.362895 22563.707654 21849.573096 21345.117438 20901.906596 20187.797664 19461.231661 18716.204756 18134.823891 17705.771129 17319.125834 16913.481534 16430.961745 15865.192272 15244.876030 14619.924847 14027.141052 13476.359550 12950.335478 12424.566936 11894.610669 11364.995925 10838.462238 10307.794310 9756.564689 9173.391540 8565.671766 7961.489261 7395.473857 6888.354967 6432.363258 5994.098179 5527.783725 5003.058590 4406.975689 3756.859704 3074.980214 2497.422832 2000.161522 1562.256621 -365.809475 2314.521071 1081.053625 -5013.195510 1061.442157 -4369.694419 -5768.905814 -3294.265842 -1514.761800 -708.563202 -352.966186 -184.549997 -99.031263 -53.190639 -28.056013 -14.360609 -7.085016 -3.356509 -1.523517 -0.661608 -0.274611 -0.108865 -0.041198 -0.014877 -0.005125 -0.001684 -0.000528 -0.000158 -0.000045 -0.000012 -0.000003 -0.000001 -0.000000 -0.000000 -0.000000 -0.000000 -0.000000 -0.000000 0.000000 0.000000 0.000000 0.000000 0.000000 0.000000 0.000000 0.000000 0.000000 0.000000 0.000000 0.000000 0.000000 0.000000 0.000000 0.000000 0.000000 -0.000000 -0.000000 -0.000000 -0.000000 -0.000000 -0.000000 -0.000000 -0.000000 -0.000000 -0.000000 -0.000000 -0.000000 -0.000000 -0.000000 -0.000000 -0.000000 -0.000000 -0.000000 -0.000000 -0.000000 -0.000000 -0.000000 -0.000000 -0.000000 -0.000000 -0.000000 -0.000000 -0.000000 -0.000000 -0.000000 -0.000000 -0.000000 -0.000000 -0.000000 -0.000000 -0.000000 -0.000000 -0.000000 -0.000000 -0.000000 -0.000000 -0.000000 -0.000000 -0.000000 -0.000000 -0.000000 -0.000000 -0.000000 -0.000000 -0.000000 -0.000000 -0.000000 -0.000000 -0.000000 -0.000000 -0.000000 -0.000000 -0.000000 -0.000000 -0.000000 -0.000000 -0.000000 -0.000000 -0.000000 -0.000000 -0.000000 -0.000000 -0.000000 -0.000000 -0.000000 -0.000000 -0.000000 -0.000000 -0.000000 -0.000000 -0.000000 -0.000000 -0.000000 -0.000000 -0.000000 -0.000000 -0.000000 -0.000000 -0.000000 -0.000000 -0.000000 -0.000000 -0.000000 -0.000000 -0.000000 -0.000000 -0.000000 -0.000000 -0.000000 -0.000000 -0.000000 -0.000000 -0.000000 -0.000000 -0.000000 -0.000000 -0.000000 -0.000000 -0.000000 -0.000000 -0.000000 -0.000000 -0.000000 -0.000000 -0.000000 -0.000000 -0.000000 -0.000000 -0.000000 -0.000000 -0.000000 -0.000000 -0.000000 -0.000000 -0.000000 -0.000000 -0.000000 -0.000000 -0.000000 -0.000000 -0.000000 -0.000000 -0.000000 -0.000000 -0.000000 -0.000000 -0.000000 -0.000000 -0.000000 -0.000000 -0.000000 -0.000000 -0.000000 -0.000000 -0.000000 -0.000000 -0.000000 -0.000000 -0.000000 -0.000000 -0.000000 -0.000000 -0.000000 -0.000000 -0.000000 -0.000000 -0.000000 -0.000000 -0.000000 -0.000000 -0.000000 -0.000000 -0.000000 -0.000000 -0.000000 -0.000000 -0.000000 -0.000000 -0.000000 -0.000000 -0.000000 -0.000000 -0.000000 -0.000000 -0.000000 -0.000000 -0.000000 -0.000000 -0.000000 -0.000000 -0.000000 -0.000000 -0.000000 -0.000000 -0.000000 -0.000000 -0.000000 -0.000000 -0.000000 -0.000000 -0.000000 -0.000000 -0.000000 -0.000000 -0.000000 -0.000000 -0.000000 -0.000000 -0.000000 -0.000000 -0.000000 -0.000000 -0.000000 -0.000000 -0.000000 -0.000000 -0.000000 -0.000000 -0.000000 -0.000000 -0.000000 -0.000000 -0.000000 -0.000000 -0.000000 -0.000000 -0.000000 -0.000000 -0.000000 -0.000000 -0.000000 -0.000000 -0.000000 -0.000000 -0.000000 -0.000000 -0.000000 -0.000000 -0.000000 -0.000000 -0.000000 -0.000000 -0.000000 -0.000000 -0.000000 -0.000000 -0.000000 -0.000000 -0.000000 -0.000000 -0.000000 -0.000000 -0.000000 -0.000000 -0.000000 -0.000000 -0.000000 -0.000000 -0.000000 -0.000000 -0.000000 -0.000000 -0.000000 -0.000000 -0.000000 -0.000000 -0.000000 -0.000000 -0.000000 -0.000000 -0.000000 -0.000000 -0.000000 -0.000000 -0.000000 -0.000000 -0.000000 -0.000000 -0.000000 -0.000000 -0.000000 -0.000000 -0.000000 -0.000000 -0.000000 -0.000000 -0.000000 -0.000000 -0.000000 0.000000 0.000000 0.000000 -0.000000 -0.000000 -0.000000 0.000000 0.000000 0.000000 -0.000000 -0.000000 -0.000000 0.000000 0.000000 0.000000 -0.000000 -0.000000 -0.000000 0.000000 0.000000 0.000000 -0.000000 -0.000000 -0.000000 0.000000 0.000000 0.000000 -0.000000 -0.000000 -0.000000 0.000000 0.000000 0.000000 -0.000000 -0.000000 -0.000000 0.000000 0.000000 0.000000 -0.000000 -0.000000 -0.000000 0.000000 0.000000 0.000000 -0.000000 -0.000000 -0.000000 0.000000 0.000000 0.000000 -0.000000 -0.000000 -0.000000 0.000000 0.000000 0.000000 -0.000000 -0.000000 -0.000000 0.000000 0.000000 0.000000 -0.000000 -0.000000 -0.000000 0.000000 0.000000 0.000000 -0.000000 -0.000000 -0.000000 0.000000 0.000000 0.000000 -0.000000 -0.000000 -0.000000 0.000000 0.000000 0.000000 -0.000000 -0.000000 -0.000000 0.000000 0.000000 0.000000 -0.000000 -0.000000 -0.000000 0.000000 0.000000 0.000000 -0.000000 -0.000000 -0.000000 0.000000 0.000000 0.000000 -0.000000 -0.000000 -0.000000 0.000000 0.000000 0.000000 -0.000000 -0.000000 -0.000000 0.000000 0.000000 0.000000 -0.000000 -0.000000 -0.000000 0.000000 0.000000 0.000000 -0.000000 -0.000000 -0.000000 0.000000 0.000000 0.000000 -0.000000 -0.000000 -0.000000 0.000000 0.000000 0.000000 -0.000000 -0.000000 -0.000000 0.000000 0.000000 0.000000 -0.000000 -0.000000 -0.000000 0.000000 0.000000 0.000000 -0.000000 -0.000000 -0.000000 0.000000 0.000000 0.000000 -0.000000 -0.000000 -0.000000 0.000000 0.000000 0.000000 -0.000000 -0.000000 -0.000000 0.000000 0.000000 0.000000 -0.000000 -0.000000 -0.000000 0.000000 0.000000 0.000000 -0.000000 -0.000000 -0.000000 0.000000 0.000000 0.000000 -0.000000 -0.000000 -0.000000 0.000000 0.000000 0.000000 -0.000000 -0.000000 -0.000000 0.000000 0.000000 0.000000 -0.000000 -0.000000 -0.000000 0.000000 0.000000 0.000000 -0.000000 -0.000000 -0.000000 0.000000 0.000000 0.000000 -0.000000 -0.000000 -0.000000 0.000000 0.000000 0.000000 -0.000000 -0.000000 -0.000000 0.000000 0.000000 0.000000 -0.000000 -0.000000 -0.000000 0.000000 0.000000 0.000000 -0.000000 -0.000000 -0.000000 0.000000 0.000000 0.000000 -0.000000 -0.000000 -0.000000 0.000000 0.000000 0.000000 -0.000000 -0.000000 -0.000000 0.000000 0.000000 0.000000 -0.000000 -0.000000 -0.000000 0.000000 0.000000 0.000000 -0.000000 -0.000000 -0.000000 0.000000 0.000000 0.000000 -0.000000 -0.000000 -0.000000 0.000000 0.000000 0.000000 -0.000000 -0.000000 -0.000000 0.000000 0.000000 0.000000 -0.000000 -0.000000 -0.000000 0.000000 0.000000 0.000000 -0.000000 -0.000000 -0.000000 0.000000 0.000000 0.000000 -0.000000 -0.000000 -0.000000 0.000000 0.000000 0.000000 -0.000000 -0.000000 -0.000000 0.000000 0.000000 0.000000 -0.000000 -0.000000 -0.000000 0.000000 0.000000 0.000000 -0.000000 -0.000000 -0.000000 0.000000 0.000000 0.000000 -0.000000 -0.000000 -0.000000 0.000000 0.000000 0.000000 -0.000000 -0.000000 -0.000000 0.000000 0.000000 0.000000 -0.000000 -0.000000 -0.000000 0.000000 0.000000 0.000000 -0.000000 -0.000000 -0.000000 0.000000 0.000000 0.000000 -0.000000 -0.000000 -0.000000 0.000000 0.000000 0.000000 -0.000000 -0.000000 -0.000000 0.000000 0.000000 0.000000 -0.000000 -0.000000 -0.000000 0.000000 0.000000 0.000000 -0.000000 -0.000000 -0.000000 0.000000 0.000000 0.000000 -0.000000 -0.000000 -0.000000 0.000000 0.000000 0.000000 -0.000000 -0.000000 -0.000000 0.000000 0.000000 0.000000 -0.000000 -0.000000 -0.000000 0.000000 0.000000 0.000000 -0.000000 -0.000000 -0.000000 0.000000 0.000000 0.000000 -0.000000 -0.000000 -0.000000 0.000000 0.000000 0.000000 -0.000000 -0.000000 -0.000000 0.000000 0.000000 0.000000 -0.000000 -0.000000 -0.000000 0.000000 0.000000 0.000000 -0.000000 -0.000000 -0.000000 0.000000 0.000000 0.000000 -0.000000 -0.000000 -0.000000 0.000000 0.000000 0.000000 -0.000000 -0.000000 -0.000000 0.000000 0.000000 0.000000 -0.000000 -0.000000 -0.000000 0.000000 0.000000 0.000000 -0.000000 -0.000000 -0.000000 0.000000 0.000000 0.000000 -0.000000 -0.000000 -0.000000 0.000000 0.000000 0.000000 -0.000000 -0.000000 -0.000000 0.000000 0.000000 0.000000 -0.000000 -0.000000 -0.000000 0.000000 0.000000 0.000000 -0.000000 -0.000000 -0.000000 0.000000 0.000000 0.000000 -0.000000 -0.000000 -0.000000 0.000000 0.000000 0.000000 -0.000000 -0.000000 -0.000000 0.000000 0.000000 0.000000 -0.000000 -0.000000 -0.000000 0.000000 0.000000 0.000000 -0.000000 -0.000000 -0.000000 0.000000 0.000000 0.000000 -0.000000 -0.000000 -0.000000 0.000000 0.000000 0.000000 -0.000000 -0.000000 -0.000000 0.000000 0.000000 0.000000 -0.000000 -0.000000 -0.000000 0.000000 0.000000 0.000000 -0.000000 -0.000000 -0.000000 0.000000 0.000000 0.000000 -0.000000 -0.000000 -0.000000 0.000000 0.000000 0.000000 -0.000000 -0.000000 -0.000000 0.000000 0.000000 0.000000 -0.000000 -0.000000 -0.000000 0.000000 0.000000 0.000000 -0.000000 -0.000000 -0.000000 0.000000 0.000000 0.000000 -0.000000 -0.000000 -0.000000 0.000000 0.000000 0.000000 -0.000000 -0.000000 -0.000000 0.000000 0.000000 0.000000 -0.000000 -0.000000 -0.000000 0.000000 0.000000 0.000000 -0.000000 -0.000000 -0.000000 0.000000 0.000000 0.000000 -0.000000 -0.000000 -0.000000 0.000000 0.000000 0.000000 -0.000000 -0.000000 -0.000000 0.000000 0.000000 0.000000 -0.000000 -0.000000 -0.000000 0.000000 0.000000 0.000000 -0.000000 -0.000000 -0.000000 0.000000 0.000000 0.000000 -0.000000 -0.000000 -0.000000 0.000000 0.000000 0.000000 -0.000000 -0.000000 -0.000000 0.000000 0.000000 0.000000 -0.000000 -0.000000 -0.000000 0.000000 0.000000 0.000000 -0.000000 -0.000000 -0.000000 0.000000 0.000000 0.000000 -0.000000 -0.000000 -0.000000 0.000000 0.000000 0.000000 -0.000000 -0.000000 -0.000000 0.000000 0.000000 0.000000 -0.000000 -0.000000 -0.000000 0.000000 0.000000 0.000000 -0.000000 -0.000000 -0.000000 0.000000 0.000000 0.000000 -0.000000 -0.000000 -0.000000 0.000000 0.000000 0.000000 -0.000000 -0.000000 -0.000000 0.000000 0.000000 0.000000 -0.000000 -0.000000 -0.000000 0.000000 0.000000 0.000000 -0.000000 -0.000000 -0.000000 0.000000 0.000000 0.000000 -0.000000 -0.000000 -0.000000 0.000000 0.000000 0.000000 -0.000000 -0.000000 -0.000000 0.000000 0.000000 0.000000 -0.000000 -0.000000 -0.000000 0.000000 0.000000 0.000000 -0.000000 -0.000000 -0.000000 0.000000 0.000000 0.000000 -0.000000 -0.000000 -0.000000 0.000000 0.000000 0.000000 -0.000000 -0.000000 -0.000000 0.000000 0.000000 0.000000 -0.000000 -0.000000 -0.000000 0.000000 0.000000 0.000000 -0.000000 -0.000000 -0.000000 0.000000 0.000000 0.000000 -0.000000 -0.000000 -0.000000 0.000000 0.000000 0.000000 -0.000000 -0.000000 -0.000000 0.000000 0.000000 0.000000 -0.000000 -0.000000 -0.000000 0.000000 0.000000 0.000000 -0.000000 -0.000000 -0.000000 -0.000000 -0.000000 -0.000000 -0.000000 -0.000000 -0.000000 -0.000000 -0.000000 -0.000000 -0.000000 -0.000000 -0.000000 -0.000000 -0.000000 -0.000000 -0.000000 -0.000000 -0.000000 -0.000000 -0.000000 -0.000000 -0.000000 -0.000000 -0.000000 -0.000000 -0.000000 -0.000000 0.000000 -0.000000 -0.000000 -0.000000 -0.000000 -0.000000 0.000000 -0.000000 -0.000000 -0.000000 -0.000000 -0.000000 0.000000 -0.000000 -0.000000 -0.000000 -0.000000 -0.000000 0.000000 -0.000000 -0.000000 -0.000000 -0.000000 -0.000000 0.000000 -0.000000 -0.000000 -0.000000 -0.000000 -0.000000 0.000000 -0.000000 -0.000000 -0.000000 -0.000000 -0.000000 0.000000 -0.000000 -0.000000 -0.000000 -0.000000 -0.000000 0.000000 -0.000000 -0.000000 -0.000000 -0.000000 -0.000000 0.000000 -0.000000 -0.000000 -0.000000 -0.000000 -0.000000 0.000000 -0.000000 -0.000000 -0.000000 -0.000000 -0.000000 0.000000 -0.000000 -0.000000 -0.000000 -0.000000 -0.000000 0.000000 -0.000000 -0.000000 -0.000000 -0.000000 -0.000000 0.000000 -0.000000 -0.000000 -0.000000 -0.000000 -0.000000 0.000000 -0.000000 -0.000000 -0.000000 -0.000000 -0.000000 0.000000 -0.000000 -0.000000 -0.000000 -0.000000 -0.000000 0.000000 -0.000000 -0.000000 -0.000000 -0.000000 -0.000000 0.000000 -0.000000 -0.000000 -0.000000 -0.000000 -0.000000 0.000000 -0.000000 -0.000000 -0.000000 -0.000000 -0.000000 0.000000 -0.000000 -0.000000 -0.000000 -0.000000 -0.000000 0.000000 -0.000000 -0.000000 -0.000000 -0.000000 -0.000000 0.000000 -0.000000 -0.000000 -0.000000 -0.000000 -0.000000 0.000000 -0.000000 -0.000000 -0.000000 -0.000000 -0.000000 0.000000 -0.000000 -0.000000 -0.000000 -0.000000 -0.000000 0.000000 -0.000000 -0.000000 -0.000000 -0.000000 -0.000000 0.000000 -0.000000 -0.000000 -0.000000 -0.000000 -0.000000 0.000000 -0.000000 -0.000000 -0.000000 -0.000000 -0.000000 0.000000 -0.000000 -0.000000 -0.000000 -0.000000 -0.000000 0.000000 -0.000000 -0.000000 -0.000000 -0.000000 -0.000000 0.000000 -0.000000 -0.000000 -0.000000 -0.000000 -0.000000 0.000000 -0.000000 -0.000000 -0.000000 -0.000000 -0.000000 0.000000 -0.000000 -0.000000 -0.000000 -0.000000 -0.000000 0.000000 -0.000000 -0.000000 -0.000000 -0.000000 -0.000000 0.000000 -0.000000 -0.000000 -0.000000 -0.000000 -0.000000 0.000000 -0.000000 -0.000000 -0.000000 -0.000000 -0.000000 -0.000000 -0.000000 0.000000 0.000000 0.000000 0.000000 6439.000645 6439.000645 6439.000645 6615.576260 8947.964336 17258.684009 22724.046938 26311.158376 23006.127229 20462.376443 18847.836618 16373.876018 16782.837688 16282.237107 15384.455989 14219.271560 13131.974547 11975.502847 10750.590890 9394.057112 7651.961714 6316.344988 4823.030867 2553.152215 929.760153 1184.396068 643.073038 128.474747 -52.194679 -109.679918 -107.211232 -82.186900 -54.672783 -32.859044 -18.222969 -9.442727 -4.607538 -2.127397 -0.932263 -0.388436 -0.154045 -0.058181 -0.020934 -0.007177 -0.002345 -0.000730 -0.000217 -0.000061 -0.000017 -0.000004 -0.000001 -0.000000 -0.000000 -0.000000 -0.000000 -0.000000 -0.000000 -0.000000 -0.000000 -0.000000 -0.000000 -0.000000 -0.000000 -0.000000 -0.000000 -0.000000 -0.000000 -0.000000 -0.000000 -0.000000 -0.000000 -0.000000 -0.000000 -0.000000 -0.000000 -0.000000 -0.000000 -0.000000 -0.000000 -0.000000 -0.000000 -0.000000 -0.000000 -0.000000 -0.000000 -0.000000 -0.000000 -0.000000 -0.000000 -0.000000 -0.000000 -0.000000 -0.000000 -0.000000 -0.000000 -0.000000 -0.000000 -0.000000 -0.000000 -0.000000 -0.000000 -0.000000 -0.000000 -0.000000 -0.000000 -0.000000 -0.000000 0.000000 -0.000000 -0.000000 -0.000000 4132.939682 4132.939682 4132.939682 4242.524160 5625.721902 11328.050133 17364.742193 22105.618064 20970.083633 17449.141151 14634.343956 11720.161298 10870.658051 10158.470659 9478.833117 8764.223374 8036.999806 7246.123036 6396.778302 5480.089230 4482.474397 3603.739629 2690.767422 1298.952098 66.675469 166.121822 238.447306 58.640815 -59.955383 -102.071968 -98.923998 -76.854746 -52.092057 -31.938284 -18.063532 -9.537175 -4.736594 -2.223690 -0.989939 -0.418722 -0.168482 -0.064537 -0.023544 -0.008183 -0.002710 -0.000855 -0.000257 -0.000074 -0.000020 -0.000005 -0.000001 -0.000000 -0.000000 -0.000000 -0.000000 -0.000000 -0.000000 -0.000000 -0.000000 -0.000000 -0.000000 0.000000 -0.000000 -0.000000 0.000000 -0.000000 -0.000000 -0.000000 -0.000000 -0.000000 -0.000000 -0.000000 -0.000000 -0.000000 0.000000 -0.000000 -0.000000 0.000000 -0.000000 -0.000000 -0.000000 -0.000000 -0.000000 -0.000000 -0.000000 -0.000000 -0.000000 0.000000 -0.000000 -0.000000 0.000000 -0.000000 -0.000000 -0.000000 -0.000000 -0.000000 -0.000000 -0.000000 -0.000000 -0.000000 0.000000 -0.000000 -0.000000 0.000000 -0.000000 -0.000000 -0.000000 -0.000000 -0.000000 -0.000000 -0.000000 2820.820426 2820.820426 2820.820426 2901.395118 3815.019238 6229.097512 8452.501478 10181.646715 10276.495908 9167.483358 8197.976691 7357.865839 6728.360072 6219.480858 5742.204515 5264.558681 4775.064367 4269.474255 3749.270531 3218.513160 2685.698745 2158.652541 1618.874358 1072.481314 619.464024 337.217601 154.351319 18.735587 -63.515188 -94.393551 -91.122714 -71.995137 -49.876873 -31.277493 -18.077921 -9.740975 -4.930296 -2.355916 -1.066422 -0.458294 -0.187251 -0.072805 -0.026953 -0.009504 -0.003193 -0.001022 -0.000312 -0.000091 -0.000025 -0.000007 -0.000002 -0.000000 -0.000000 -0.000000 -0.000000 -0.000000 -0.000000 -0.000000 -0.000000 -0.000000 -0.000000 -0.000000 -0.000000 -0.000000 -0.000000 -0.000000 -0.000000 -0.000000 -0.000000 -0.000000 -0.000000 -0.000000 -0.000000 -0.000000 -0.000000 -0.000000 -0.000000 -0.000000 -0.000000 -0.000000 -0.000000 -0.000000 -0.000000 -0.000000 -0.000000 -0.000000 -0.000000 -0.000000 -0.000000 -0.000000 -0.000000 -0.000000 -0.000000 -0.000000 -0.000000 -0.000000 -0.000000 -0.000000 -0.000000 -0.000000 -0.000000 -0.000000 -0.000000 -0.000000 -0.000000 -0.000000 -0.000000 0.000000 0.000000 0.000000 0.000000 2639.709919 2639.709919 2639.709919 2722.850831 3600.237407 5659.438813 7430.637989 8556.931089 8710.659998 8148.823282 7404.167323 6729.511480 6178.044970 5704.911060 5258.212876 4812.339215 4358.017239 3893.283158 3419.813066 2940.852833 2460.598351 1981.099428 1499.750579 1033.242395 636.442666 349.811499 151.027403 14.928046 -63.677556 -93.091357 -89.872413 -71.237849 -49.549019 -31.196577 -18.099628 -9.786970 -4.969648 -2.381874 -1.081224 -0.465907 -0.190856 -0.074395 -0.027610 -0.009760 -0.003287 -0.001055 -0.000322 -0.000094 -0.000026 -0.000007 -0.000002 -0.000000 -0.000000 -0.000000 -0.000000 -0.000000 -0.000000 -0.000000 -0.000000 -0.000000 -0.000000 -0.000000 -0.000000 -0.000000 -0.000000 -0.000000 -0.000000 -0.000000 -0.000000 -0.000000 -0.000000 -0.000000 -0.000000 -0.000000 -0.000000 -0.000000 -0.000000 -0.000000 -0.000000 -0.000000 -0.000000 -0.000000 -0.000000 -0.000000 -0.000000 -0.000000 -0.000000 -0.000000 -0.000000 -0.000000 -0.000000 -0.000000 -0.000000 -0.000000 -0.000000 -0.000000 -0.000000 -0.000000 -0.000000 -0.000000 -0.000000 -0.000000 -0.000000 -0.000000 -0.000000 0.000000 0.000000 0.000000 0.000000 0.000000 0.000000 2639.709919 2639.709919 2639.709919 2722.850831 3600.237407 5659.438813 7430.637989 8556.931089 8710.659998 8148.823282 7404.167323 6729.511480 6178.044970 5704.911060 5258.212876 4812.339215 4358.017239 3893.283158 3419.813066 2940.852833 2460.598351 1981.099428 1499.750579 1033.242395 636.442666 349.811499 151.027403 14.928046 -63.677556 -93.091357 -89.872413 -71.237849 -49.549019 -31.196577 -18.099628 -9.786970 -4.969648 -2.381874 -1.081224 -0.465907 -0.190856 -0.074395 -0.027610 -0.009760 -0.003287 -0.001055 -0.000322 -0.000094 -0.000026 -0.000007 -0.000002 -0.000000 -0.000000 -0.000000 -0.000000 -0.000000 -0.000000 -0.000000 -0.000000 -0.000000 -0.000000 -0.000000 -0.000000 -0.000000 -0.000000 -0.000000 -0.000000 -0.000000 -0.000000 -0.000000 -0.000000 -0.000000 -0.000000 -0.000000 -0.000000 -0.000000 -0.000000 -0.000000 -0.000000 -0.000000 -0.000000 -0.000000 -0.000000 -0.000000 -0.000000 -0.000000 -0.000000 -0.000000 -0.000000 -0.000000 -0.000000 -0.000000 -0.000000 -0.000000 -0.000000 -0.000000 -0.000000 -0.000000 -0.000000 -0.000000 -0.000000 -0.000000 -0.000000 -0.000000 -0.000000 0.000000 0.000000 0.000000 0.000000 0.000000 0.000000 2639.709919 2639.709919 2639.709919 2722.850831 3600.237407 5659.438813 7430.637989 8556.931089 8710.659998 8148.823282 7404.167323 6729.511480 6178.044970 5704.911060 5258.212876 4812.339215 4358.017239 3893.283158 3419.813066 2940.852833 2460.598351 1981.099428 1499.750579 1033.242395 636.442666 349.811499 151.027403 14.928046 -63.677556 -93.091357 -89.872413 -71.237849 -49.549019 -31.196577 -18.099628 -9.786970 -4.969648 -2.381874 -1.081224 -0.465907 -0.190856 -0.074395 -0.027610 -0.009760 -0.003287 -0.001055 -0.000322 -0.000094 -0.000026 -0.000007 -0.000002 -0.000000 -0.000000 -0.000000 -0.000000 -0.000000 -0.000000 -0.000000 -0.000000 -0.000000 -0.000000 -0.000000 -0.000000 -0.000000 -0.000000 -0.000000 -0.000000 -0.000000 -0.000000 -0.000000 -0.000000 -0.000000 -0.000000 -0.000000 -0.000000 -0.000000 -0.000000 -0.000000 -0.000000 -0.000000 -0.000000 -0.000000 -0.000000 -0.000000 -0.000000 -0.000000 -0.000000 -0.000000 -0.000000 -0.000000 -0.000000 -0.000000 -0.000000 -0.000000 -0.000000 -0.000000 -0.000000 -0.000000 -0.000000 -0.000000 -0.000000 -0.000000 -0.000000 -0.000000 -0.000000 0.000000 0.000000 0.000000 0.000000 0.000000 0.000000 5051.217288 5051.217288 5051.217288 5497.177817 10651.989026 21209.047640 24702.473745 25549.968490 25004.589764 24754.396042 24409.222970 23581.883909 23106.235068 22729.947578 21988.053325 21235.119381 20398.068302 19725.734460 19244.518981 18837.712609 18448.188183 17984.822031 17417.042255 16773.153110 16103.559424 15454.691391 14850.301993 14274.665787 13698.477237 13111.689252 12526.543648 11959.887489 11407.463423 10848.040912 10261.342049 9648.580925 9034.716560 8457.127775 7945.447947 7497.064524 7074.296663 6617.271446 6082.035140 5441.908704 4718.721497 3927.453540 3245.972079 2613.046145 2244.634116 -404.276094 1400.414263 -1017.408390 -6793.901881 932.521250 -4954.836726 -6309.582210 6750.656031 6750.656031 6750.656031 7545.596874 17119.578200 33275.381266 36090.005971 36774.929450 39933.778454 36989.165477 37076.638309 36640.322771 35397.482236 34875.475526 35030.260686 34446.388101 33826.752718 33025.155021 31750.050927 30779.742726 30039.773322 29522.129377 29176.683393 28796.692757 28296.784268 27647.405206 26900.651752 26119.997971 25354.125376 24622.109197 23899.528660 23163.627818 22409.436307 21663.997947 20975.471301 20369.177723 19821.503362 19273.628877 18670.631623 18005.980168 17330.105923 16711.195671 16170.726496 15652.514977 15025.080205 14152.219135 12943.162967 11424.593113 9676.041074 7869.988606 6152.884107 4601.096554 4602.722845 926.001396 3933.280760 4231.390327 9226.051869 9226.051869 9226.051869 10387.376428 23393.885955 43469.635415 51903.558905 50571.149369 50399.067995 47041.178458 47388.174919 47165.495384 46008.493016 44810.874084 45068.310544 44109.061392 43986.717807 43380.517199 41898.976575 40663.157756 39520.204402 38595.199527 37922.417031 37301.224078 36690.364315 36000.107683 35242.870706 34451.430660 33662.630766 32905.461330 32153.752643 31349.870484 30443.603820 29433.477818 28370.739921 27314.413512 26285.179414 25253.287315 24173.559938 23035.055531 21876.890435 20765.154844 19732.160629 18744.014193 17683.106940 16417.737580 14845.255779 12965.000525 10861.277619 8710.085050 6834.175991 4462.762272 3544.952247 2649.333571 485.218177 859.023718 10948.412571 10948.412571 10948.412571 12157.356698 23942.016082 42506.071762 50086.967997 65632.110713 55183.624367 53814.458767 52423.146428 52478.559993 49714.216398 48984.449164 48480.904040 47106.436218 46982.577453 45860.033819 44277.318472 43111.224524 42005.291117 41112.692559 40348.443466 39489.936715 38574.095753 37511.129103 36350.902244 35124.373602 33885.872835 32706.075261 31603.954097 30556.491559 29507.166799 28411.026598 27265.963070 26101.419307 24944.240578 23791.397968 22613.007513 21383.512027 20109.419567 18835.739421 17609.352442 16449.808344 15311.405867 14103.343691 12748.327091 11176.055454 9494.597036 7576.539563 6071.887256 4482.529753 2866.043003 2215.628688 1146.749669 507.540991 11750.668136 11750.668136 11750.668136 13309.267663 29570.149951 46929.117702 50738.206953 65278.272672 53254.612880 53566.352751 51978.224628 51565.453315 49032.166478 49374.456429 47741.081540 47174.235677 46517.832536 44978.615052 43167.166098 41818.737262 40537.126486 39582.806206 38796.102520 37948.119670 37100.327445 36132.195642 35106.444258 34013.837449 32870.733647 31724.542251 30596.484378 29493.656665 28391.176283 27262.778792 26114.112714 24983.479552 23914.872130 22922.897524 21979.844589 21037.343655 20059.215564 19045.429358 18013.824793 16974.430146 15899.841399 14705.776470 13351.214595 11734.804697 10019.006311 8123.519211 6295.526083 4784.193590 3292.831596 2145.915446 1285.500157 478.348417 11972.744992 11972.744992 11972.744992 13335.959498 33195.927369 48351.873907 42470.031225 57272.278403 56546.596753 52662.920573 51181.012282 49513.790260 48729.171642 47662.455823 46374.196369 46578.277301 45481.056709 44175.905477 42527.999136 41320.286357 4