<VTKFile type="PolyData">
<PolyData>
<Piece NumberOfPoints="8632" NumberOfVerts="8632" NumberOfLines="0" NumberOfStrips="0" NumberOfPolys="0">
<PointData>
<DataArray type="Float64" Name="Pressure" format="ascii">
 12875.607399 12875.607399 12875.607399 12867.840141 12781.521768 12562.640703 12316.017028 12026.300625 11684.756902 11288.003421 10843.708985 10367.789722 9857.683348 9302.700835 8705.531294 8074.418911 7421.298426 6766.908031 6135.113641 5543.138804 4988.743662 4460.852246 3958.995583 3492.118942 3064.271255 2670.214386 2304.293480 1962.810069 1638.819716 1319.399570 990.172770 662.175328 396.450751 242.203427 180.170016 160.059744 127.290758 33.494823 -107.540484 -208.764275 -242.094435 -257.206895 -321.452449 -469.107956 -644.893835 -785.166360 -925.325558 -1115.470645 -1311.709845 -1440.747080 -1497.028484 -1505.055451 -1484.688106 -1448.431208 -1402.970210 -1351.590621 -1296.020124 -1237.888571 -1178.887038 -1120.156913 -1062.299606 -1005.633390 -950.340699 -896.539887 -844.317692 -793.743762 -744.876901 -697.767427 -652.457695 -608.981832 -567.365241 -527.624145 -489.765336 -453.786169 -419.674801 -387.410651 -356.965012 -328.301790 -301.378304 -276.146111 -252.551837 -230.537980 -210.043670 -191.005395 -173.357660 -157.033608 -141.965575 -128.085601 -115.325890 -103.619213 -92.899273 -83.101021 -74.160919 -66.017177 -58.609936 -51.881420 -45.776060 -40.240595 -35.224175 -30.678538 -26.558385 -22.822324 -19.435225 -16.373621 -13.635386 -11.240282 -9.167916 -7.834027 -7.582169 -7.582169 -7.582169 12875.607399 12875.607399 12875.607399 12867.840141 12781.521768 12562.640703 12316.017028 12026.300625 11684.756902 11288.003421 10843.708985 10367.789722 9857.683348 9302.700835 8705.531294 8074.418911 7421.298426 6766.908031 6135.113641 5543.138804 4988.743662 4460.852246 3958.995583 3492.118942 3064.271255 2670.214386 2304.293480 1962.810069 1638.819716 1319.399570 990.172770 662.175328 396.450751 242.203427 180.170016 160.059744 127.290758 33.494823 -107.540484 -208.764275 -242.094435 -257.206895 -321.452449 -469.107956 -644.893835 -785.166360 -925.325558 -1115.470645 -1311.709845 -1440.747080 -1497.028484 -1505.055451 -1484.688106 -1448.431208 -1402.970210 -1351.590621 -1296.020124 -1237.888571 -1178.887038 -1120.156913 -1062.299606 -1005.633390 -950.340699 -896.539887 -844.317692 -793.743762 -744.876901 -697.767427 -652.457695 -608.981832 -567.365241 -527.624145 -489.765336 -453.786169 -419.674801 -387.410651 -356.965012 -328.301790 -301.378304 -276.146111 -252.551837 -230.537980 -210.043670 -191.005395 -173.357660 -157.033608 -141.965575 -128.085601 -115.325890 -103.619213 -92.899273 -83.101021 -74.160919 -66.017177 -58.609936 -51.881420 -45.776060 -40.240595 -35.224175 -30.678538 -26.558385 -22.822324 -19.435225 -16.373621 -13.635386 -11.240282 -9.167916 -7.834027 -7.582169 -7.582169 -7.582169 12875.607399 12875.607399 12875.607399 12867.840141 12781.521768 12562.640703 12316.017028 12026.300625 11684.756902 11288.003421 10843.708985 10367.789722 9857.683348 9302.700835 8705.531294 8074.418911 7421.298426 6766.908031 6135.113641 5543.138804 4988.743662 4460.852246 3958.995583 3492.118942 3064.271255 2670.214386 2304.293480 1962.810069 1638.819716 1319.399570 990.172770 662.175328 396.450751 242.203427 180.170016 160.059744 127.290758 33.494823 -107.540484 -208.764275 -242.094435 -257.206895 -321.452449 -469.107956 -644.893835 -785.166360 -925.325558 -1115.470645 -1311.709845 -1440.747080 -1497.028484 -1505.055451 -1484.688106 -1448.431208 -1402.970210 -1351.590621 -1296.020124 -1237.888571 -1178.887038 -1120.156913 -1062.299606 -1005.633390 -950.340699 -896.539887 -844.317692 -793.743762 -744.876901 -697.767427 -652.457695 -608.981832 -567.365241 -527.624145 -489.765336 -453.786169 -419.674801 -387.410651 -356.965012 -328.301790 -301.378304 -276.146111 -252.551837 -230.537980 -210.043670 -191.005395 -173.357660 -157.033608 -141.965575 -128.085601 -115.325890 -103.619213 -92.899273 -83.101021 -74.160919 -66.017177 -58.609936 -51.881420 -45.776060 -40.240595 -35.224175 -30.678538 -26.558385 -22.822324 -19.435225 -16.373621 -13.635386 -11.240282 -9.167916 -7.834027 -7.582169 -7.582169 -7.582169 12882.438175 12882.438175 12882.438175 12874.817546 12789.729574 12575.914073 12336.065299 12051.078485 11712.549966 11315.905168 10863.888627 10390.081370 9886.864553 9331.524734 8731.185656 8094.382804 7431.995765 6770.003901 6130.936834 5538.710112 4989.118576 4465.205273 3963.665200 3496.259008 3070.074538 2676.487788 2309.766918 1968.799103 1647.660605 1331.927600 998.051061 646.634957 361.808817 214.664305 170.214279 168.557114 151.512214 57.714192 -127.699336 -231.016278 -247.133156 -238.296276 -287.472540 -464.863909 -659.979964 -785.619161 -909.243588 -1090.421978 -1336.450659 -1468.057671 -1513.253893 -1513.871255 -1489.476989 -1451.177910 -1404.798693 -1353.028079 -1297.026255 -1238.418885 -1179.109372 -1120.237151 -1062.319444 -1005.628075 -950.324716 -896.519125 -844.294561 -793.719277 -744.851525 -697.741408 -652.431202 -608.955010 -567.338228 -527.597077 -489.738346 -453.759386 -419.648349 -387.384641 -356.939547 -328.276961 -301.354189 -276.122777 -252.529341 -230.516366 -210.022974 -190.985642 -173.338869 -157.015787 -141.948726 -128.069721 -115.310969 -103.605237 -92.886224 -83.088875 -74.149651 -66.006758 -58.600333 -51.872598 -45.767973 -40.233176 -35.217307 -30.671975 -26.551554 -22.813844 -19.421847 -16.348633 -13.592256 -11.184697 -9.122043 -7.797460 -7.547612 -7.547612 -7.547612 12953.451752 12953.451752 12953.451752 12945.724260 12852.958430 12650.024134 12463.648220 12206.398757 11913.974400 11544.112359 10972.642589 10531.203403 10148.244785 9593.935955 8967.802176 8271.728779 7499.848144 6759.123921 6030.773777 5428.308760 4948.442205 4490.881762 3999.118664 3527.462807 3136.103132 2756.082480 2374.556544 2035.516411 1749.783472 1494.419505 1174.410588 434.684055 -168.727820 -123.122827 53.137649 266.248567 509.546892 419.639803 -429.564616 -602.880172 -306.820792 -7.103343 201.787793 -434.786122 -1014.989918 -805.732674 -473.612872 -744.663087 -1637.477228 -1786.638678 -1692.411562 -1609.586740 -1541.274216 -1480.925273 -1425.045090 -1370.598795 -1309.594297 -1243.946490 -1181.333343 -1121.018702 -1062.506977 -1005.570291 -950.163022 -896.310787 -844.063001 -793.474368 -744.597774 -697.481249 -652.166317 -608.686838 -567.068144 -527.326442 -489.468498 -453.491617 -419.383879 -387.124600 -356.684957 -328.028728 -301.113102 -275.889508 -252.304447 -230.300299 -209.816084 -190.788187 -173.151020 -156.837640 -141.780306 -127.910988 -115.161829 -103.465544 -92.755791 -82.967475 -74.037026 -65.902620 -58.504362 -51.784427 -45.687152 -40.159054 -35.148738 -30.606555 -26.483689 -22.729894 -19.288386 -16.088667 -13.058634 -10.455955 -8.555899 -7.378404 -7.168311 -7.168311 -7.168311 13045.043761 13045.043761 13045.043761 13028.320086 12771.926329 12255.449471 12226.964242 11831.875358 11440.006069 11726.678885 10304.761457 9998.299565 10156.794319 9432.358472 8943.905544 8314.415019 7099.554699 6617.486278 5578.199271 5023.750449 4617.469201 4434.812857 4005.057071 3384.381682 3203.489841 2908.544167 2460.123646 2118.868426 1879.713830 1764.763004 1676.751818 203.551252 -1142.126423 -651.353036 -93.779836 384.841565 1030.828623 955.236252 -816.342742 -1138.579132 -385.950312 331.853342 998.114949 -260.440819 -1526.130903 -843.463228 32.248296 -810.229902 -2377.937743 -2241.186379 -1904.610254 -1722.198764 -1601.935939 -1515.825963 -1449.699889 -1396.769614 -1333.904668 -1253.769004 -1184.852315 -1122.269508 -1062.859393 -1005.559338 -950.000826 -896.082465 -843.803075 -793.197191 -744.309707 -697.185555 -651.865103 -608.381823 -566.760930 -527.018593 -489.161547 -453.187040 -419.083068 -386.828841 -356.395412 -327.746430 -300.838946 -275.624257 -252.048734 -230.054635 -209.580867 -190.563709 -172.937475 -156.635135 -141.588867 -127.730571 -114.992322 -103.306784 -92.607562 -82.829519 -73.909048 -65.784287 -58.395302 -51.684209 -45.595216 -40.074546 -35.070062 -30.530231 -26.401416 -22.620906 -19.098718 -15.668811 -11.911169 -9.113939 -7.669114 -6.798896 -6.639332 -6.639332 -6.639332 -8.566585 -7.316571 -6.655118 -6.565509 -6.565509 -6.565509 -7.277922 -6.566739 -6.119976 -6.058740 -6.058740 -6.058740 -5.745456 -5.503245 -5.303926 -5.275814 -5.275814 -5.275814 -4.732168 -4.642241 -4.564654 -4.553188 -4.553188 -4.553188 -3.967518 -3.937038 -3.911686 -3.908088 -3.908088 -3.908088 -3.352667 -3.345815 -3.341860 -3.341539 -3.341539 -3.341539 -2.841122 -2.843423 -2.847692 -2.848621 -2.848621 -2.848621 -2.408407 -2.413901 -2.420891 -2.422214 -2.422214 -2.422214 -2.039708 -2.045962 -2.053427 -2.054796 -2.054796 -2.054796 -1.724779 -1.730833 -1.737904 -1.739186 -1.739186 -1.739186 -1.455761 -1.461273 -1.467651 -1.468801 -1.468801 -1.468801 -1.226222 -1.231102 -1.236725 -1.237736 -1.237736 -1.237736 -1.030705 -1.034964 -1.039863 -1.040743 -1.040743 -1.040743 -0.864504 -0.868191 -0.872429 -0.873190 -0.873190 -0.873190 -0.723528 -0.726704 -0.730353 -0.731008 -0.731008 -0.731008 -0.604216 -0.606942 -0.610072 -0.610634 -0.610634 -0.610634 -0.503469 -0.505801 -0.508479 -0.508960 -0.508960 -0.508960 -0.418594 -0.420583 -0.422868 -0.423279 -0.423279 -0.423279 -0.347256 -0.348949 -0.350893 -0.351242 -0.351242 -0.351242 -0.287435 -0.288872 -0.290522 -0.290818 -0.290818 -0.290818 -0.237389 -0.238605 -0.240002 -0.240253 -0.240253 -0.240253 -0.195618 -0.196645 -0.197825 -0.198037 -0.198037 -0.198037 -0.160836 -0.161701 -0.162694 -0.162873 -0.162873 -0.162873 -0.131940 -0.132667 -0.133502 -0.133652 -0.133652 -0.133652 -0.107993 -0.108602 -0.109302 -0.109427 -0.109427 -0.109427 -0.088192 -0.088701 -0.089286 -0.089391 -0.089391 -0.089391 -0.071858 -0.072283 -0.072771 -0.072859 -0.072859 -0.072859 -0.058417 -0.058770 -0.059176 -0.059249 -0.059249 -0.059249 -0.047381 -0.047675 -0.048012 -0.048072 -0.048072 -0.048072 -0.038343 -0.038586 -0.038865 -0.038915 -0.038915 -0.038915 -0.030958 -0.031158 -0.031389 -0.031430 -0.031430 -0.031430 -0.024938 -0.025103 -0.025293 -0.025327 -0.025327 -0.025327 -0.020043 -0.020178 -0.020334 -0.020362 -0.020362 -0.020362 -0.016071 -0.016182 -0.016310 -0.016333 -0.016333 -0.016333 -0.012857 -0.012948 -0.013052 -0.013071 -0.013071 -0.013071 -0.010262 -0.010336 -0.010421 -0.010437 -0.010437 -0.010437 -0.008172 -0.008232 -0.008301 -0.008314 -0.008314 -0.008314 -0.006492 -0.006541 -0.006597 -0.006607 -0.006607 -0.006607 -0.005146 -0.005185 -0.005231 -0.005239 -0.005239 -0.005239 -0.004069 -0.004101 -0.004138 -0.004145 -0.004145 -0.004145 -0.003210 -0.003236 -0.003266 -0.003271 -0.003271 -0.003271 -0.002527 -0.002548 -0.002571 -0.002576 -0.002576 -0.002576 -0.001984 -0.002001 -0.002020 -0.002023 -0.002023 -0.002023 -0.001555 -0.001568 -0.001583 -0.001586 -0.001586 -0.001586 -0.001215 -0.001226 -0.001238 -0.001240 -0.001240 -0.001240 -0.000948 -0.000956 -0.000966 -0.000967 -0.000967 -0.000967 -0.000737 -0.000744 -0.000751 -0.000753 -0.000753 -0.000753 -0.000572 -0.000577 -0.000583 -0.000585 -0.000585 -0.000585 -0.000443 -0.000447 -0.000452 -0.000453 -0.000453 -0.000453 -0.000342 -0.000345 -0.000349 -0.000350 -0.000350 -0.000350 -0.000264 -0.000266 -0.000269 -0.000270 -0.000270 -0.000270 -0.000203 -0.000205 -0.000207 -0.000208 -0.000208 -0.000208 -0.000156 -0.000157 -0.000159 -0.000159 -0.000159 -0.000159 -0.000119 -0.000120 -0.000122 -0.000122 -0.000122 -0.000122 -0.000091 -0.000092 -0.000093 -0.000093 -0.000093 -0.000093 -0.000069 -0.000070 -0.000071 -0.000071 -0.000071 -0.000071 -0.000053 -0.000053 -0.000054 -0.000054 -0.000054 -0.000054 -0.000040 -0.000040 -0.000041 -0.000041 -0.000041 -0.000041 -0.000030 -0.000030 -0.000031 -0.000031 -0.000031 -0.000031 -0.000023 -0.000023 -0.000023 -0.000023 -0.000023 -0.000023 -0.000017 -0.000017 -0.000018 -0.000018 -0.000018 -0.000018 -0.000013 -0.000013 -0.000013 -0.000013 -0.000013 -0.000013 -0.000010 -0.000010 -0.000010 -0.000010 -0.000010 -0.000010 -0.000007 -0.000007 -0.000007 -0.000007 -0.000007 -0.000007 -0.000005 -0.000005 -0.000006 -0.000006 -0.000006 -0.000006 -0.000004 -0.000004 -0.000004 -0.000004 -0.000004 -0.000004 -0.000003 -0.000003 -0.000003 -0.000003 -0.000003 -0.000003 -0.000002 -0.000002 -0.000002 -0.000002 -0.000002 -0.000002 -0.000002 -0.000002 -0.000002 -0.000002 -0.000002 -0.000002 -0.000001 -0.000001 -0.000001 -0.000001 -0.000001 -0.000001 -0.000001 -0.000001 -0.000001 -0.000001 -0.000001 -0.000001 -0.000001 -0.000001 -0.000001 -0.000001 -0.000001 -0.000001 -0.000000 -0.000000 -0.000000 -0.000000 -0.000000 -0.000000 -0.000000 -0.000000 -0.000000 -0.000000 -0.000000 -0.000000 -0.000000 -0.000000 -0.000000 -0.000000 -0.000000 -0.000000 -0.000000 -0.000000 -0.000000 -0.000000 -0.000000 -0.000000 -0.000000 -0.000000 -0.000000 -0.000000 -0.000000 -0.000000 -0.000000 -0.000000 -0.000000 -0.000000 -0.000000 -0.000000 -0.000000 -0.000000 -0.000000 -0.000000 -0.000000 -0.000000 -0.000000 -0.000000 -0.000000 -0.000000 -0.000000 -0.000000 -0.000000 -0.000000 -0.000000 -0.000000 -0.000000 -0.000000 -0.000000 -0.000000 -0.000000 -0.000000 -0.000000 -0.000000 -0.000000 -0.000000 -0.000000 -0.000000 -0.000000 -0.000000 -0.000000 -0.000000 -0.000000 -0.000000 -0.000000 -0.000000 -0.000000 -0.000000 -0.000000 -0.000000 -0.000000 -0.000000 -0.000000 -0.000000 -0.000000 -0.000000 -0.000000 -0.000000 -0.000000 -0.000000 -0.000000 -0.000000 -0.000000 -0.000000 -0.000000 -0.000000 -0.000000 -0.000000 -0.000000 -0.000000 -0.000000 -0.000000 -0.000000 -0.000000 -0.000000 -0.000000 -0.000000 -0.000000 -0.000000 -0.000000 -0.000000 -0.000000 -0.000000 -0.000000 -0.000000 -0.000000 -0.000000 -0.000000 -0.000000 -0.000000 -0.000000 0.000000 0.000000 0.000000 -0.000000 -0.000000 -0.000000 0.000000 0.000000 0.000000 -0.000000 -0.000000 -0.000000 0.000000 0.000000 0.000000 -0.000000 -0.000000 -0.000000 0.000000 0.000000 0.000000 -0.000000 -0.000000 -0.000000 0.000000 0.000000 0.000000 -0.000000 -0.000000 -0.000000 0.000000 0.000000 0.000000 -0.000000 -0.000000 -0.000000 0.000000 0.000000 0.000000 -0.000000 -0.000000 -0.000000 0.000000 0.000000 0.000000 -0.000000 -0.000000 -0.000000 0.000000 0.000000 0.000000 -0.000000 -0.000000 -0.000000 0.000000 0.000000 0.000000 -0.000000 -0.000000 -0.000000 0.000000 0.000000 0.000000 -0.000000 -0.000000 -0.000000 0.000000 0.000000 0.000000 -0.000000 -0.000000 -0.000000 0.000000 0.000000 0.000000 -0.000000 -0.000000 -0.000000 0.000000 0.000000 0.000000 -0.000000 -0.000000 -0.000000 0.000000 0.000000 0.000000 0.000000 -0.000000 -0.000000 0.000000 0.000000 0.000000 0.000000 -0.000000 0.000000 0.000000 0.000000 0.000000 0.000000 0.000000 0.000000 0.000000 0.000000 0.000000 0.000000 0.000000 0.000000 0.000000 0.000000 0.000000 0.000000 0.000000 0.000000 0.000000 0.000000 0.000000 0.000000 0.000000 0.000000 0.000000 0.000000 0.000000 0.000000 0.000000 0.000000 0.000000 0.000000 0.000000 0.000000 0.000000 0.000000 0.000000 0.000000 0.000000 0.000000 0.000000 0.000000 0.000000 0.000000 0.000000 0.000000 0.000000 0.000000 0.000000 0.000000 0.000000 0.000000 0.000000 0.000000 0.000000 0.000000 0.000000 0.000000 0.000000 0.000000 0.000000 0.000000 0.000000 0.000000 0.000000 0.000000 0.000000 0.000000 0.000000 0.000000 0.000000 0.000001 0.000001 0.000001 0.000001 0.000001 0.000001 0.000001 0.000001 0.000001 0.000001 0.000001 0.000001 0.000001 0.000001 0.000001 0.000001 0.000002 0.000002 0.000002 0.000002 0.000002 0.000002 0.000003 0.000003 0.000003 0.000003 0.000003 0.000003 0.000005 0.000005 0.000005 0.000005 0.000005 0.000005 0.000008 0.000008 0.000008 0.000008 0.000008 0.000008 0.000012 0.000013 0.000013 0.000013 0.000013 0.000013 0.000019 0.000020 0.000020 0.000020 0.000020 0.000020 0.000029 0.000030 0.000031 0.000031 0.000031 0.000031 0.000045 0.000046 0.000047 0.000047 0.000047 0.000047 0.000068 0.000069 0.000071 0.000072 0.000072 0.000072 0.000102 0.000104 0.000107 0.000107 0.000107 0.000107 0.000151 0.000155 0.000158 0.000159 0.000159 0.000159 0.000223 0.000228 0.000233 0.000234 0.000234 0.000234 0.000327 0.000334 0.000341 0.000342 0.000342 0.000342 0.000475 0.000484 0.000495 0.000497 0.000497 0.000497 0.000685 0.000698 0.000712 0.000714 0.000714 0.000714 0.000980 0.000997 0.001016 0.001020 0.001020 0.001020 0.001390 0.001413 0.001439 0.001444 0.001444 0.001444 0.001956 0.001986 0.002021 0.002027 0.002027 0.002027 0.002729 0.002769 0.002816 0.002824 0.002824 0.002824 0.003778 0.003830 0.003891 0.003902 0.003902 0.003902 0.005185 0.005253 0.005332 0.005346 0.005346 0.005346 0.007058 0.007145 0.007245 0.007263 0.007263 0.007263 0.009526 0.009636 0.009763 0.009786 0.009786 0.009786 0.012747 0.012885 0.013044 0.013072 0.013072 0.013072 0.016909 0.017080 0.017277 0.017312 0.017312 0.017312 0.022236 0.022444 0.022684 0.022727 0.022727 0.022727 0.028980 0.029231 0.029520 0.029571 0.029571 0.029571 0.037431 0.037729 0.038071 0.038132 0.038132 0.038132 0.047904 0.048252 0.048650 0.048722 0.048722 0.048722 0.060735 0.061134 0.061591 0.061673 0.061673 0.061673 0.076270 0.076720 0.077234 0.077326 0.077326 0.077326 0.094846 0.095341 0.095907 0.096008 0.096008 0.096008 0.116767 0.117299 0.117905 0.118013 0.118013 0.118013 0.142275 0.142828 0.143458 0.143571 0.143571 0.143571 0.171509 0.172063 0.172692 0.172805 0.172805 0.172805 0.204466 0.204991 0.205587 0.205693 0.205693 0.205693 0.240943 0.241402 0.241921 0.242014 0.242014 0.242014 0.280485 0.280831 0.281220 0.281289 0.281289 0.281289 0.322320 0.322499 0.322695 0.322729 0.322729 0.322729 0.365305 0.365253 0.365183 0.365169 0.365169 0.365169 0.407864 0.407510 0.407094 0.407018 0.407018 0.407018 0.447946 0.447214 0.446365 0.446211 0.446211 0.446211 0.482985 0.481797 0.480425 0.480177 0.480177 0.480177 0.509889 0.508168 0.506186 0.505830 0.505830 0.505830 0.525051 0.522726 0.520056 0.519576 0.519576 0.519576 0.524394 0.521407 0.517980 0.517365 0.517365 0.517365 0.503446 0.499756 0.495528 0.494770 0.494770 0.494770 0.457467 0.453056 0.448008 0.447103 0.447103 0.447103 0.381603 0.376484 0.370630 0.369581 0.369581 0.369581 0.271091 0.265313 0.258708 0.257526 0.257526 0.257526 0.121498 0.115147 0.107893 0.106594 0.106594 0.106594 -0.071015 -0.077810 -0.085564 -0.086952 -0.086952 -0.086952 -0.309407 -0.316472 -0.324530 -0.325971 -0.325971 -0.325971 -0.595465 -0.602585 -0.610701 -0.612152 -0.612152 -0.612152 -0.929527 -0.936451 -0.944338 -0.945747 -0.945747 -0.945747 -1.310231 -1.316678 -1.324015 -1.325326 -1.325326 -1.325326 -1.734321 -1.739989 -1.746433 -1.747584 -1.747584 -1.747584 -2.196510 -2.201090 -2.206290 -2.207218 -2.207218 -2.207218 -2.689433 -2.692625 -2.696239 -2.696883 -2.696883 -2.696883 -3.203704 -3.205230 -3.206942 -3.207246 -3.207246 -3.207246 -3.728070 -3.727693 -3.727233 -3.727148 -3.727148 -3.727148 -4.249684 -4.247222 -4.244385 -4.243875 -4.243875 -4.243875 -4.754483 -4.749825 -4.744485 -4.743528 -4.743528 -4.743528 -5.227661 -5.220778 -5.212905 -5.211494 -5.211494 -5.211494 -5.654225 -5.645181 -5.634847 -5.632996 -5.632996 -5.632996 -6.019605 -6.008559 -5.995947 -5.993689 -5.993689 -5.993689 -6.310288 -6.297500 -6.282901 -6.280288 -6.280288 -6.280288 -6.514445 -6.500269 -6.484087 -6.481191 -6.481191 -6.481191 -6.622506 -6.607397 -6.590141 -6.587052 -6.587052 -6.587052 -6.627645 -6.612171 -6.594468 -6.591296 -6.591296 -6.591296 -6.526114 -6.511003 -6.493640 -6.490521 -6.490521 -6.490521 -6.317355 -6.303634 -6.287677 -6.284792 -6.284792 -6.284792 -6.003734 -5.993074 -5.980189 -5.977812 -5.977812 -5.977812 -5.589611 -5.585182 -5.578399 -5.577013 -5.577013 -5.577013 -5.079049 -5.087620 -5.093110 -5.093670 -5.093670 -5.093670 -4.470375 -4.507878 -4.538823 -4.543244 -4.543244 -4.543244 -3.742277 -3.851238 -3.934853 -3.946386 -3.946386 -3.946386 -2.807534 -3.135460 -3.305621 -3.328169 -3.328169 -3.328169 17967.381892 17967.381892 17967.381892 17705.746950 14305.746949 9523.855159 9623.955390 10397.103478 9352.386699 11144.338730 8869.249070 9188.340782 11577.159033 9833.915752 10359.716252 9948.594469 9902.492882 10845.281152 9907.305822 8336.836192 7329.594003 6131.089040 2588.347635 1278.673081 2600.759172 4435.925263 5094.201908 5216.566395 5068.882586 4798.575399 4481.798921 4157.629681 3847.055631 3563.696619 3322.549874 3154.646449 3143.125610 3581.628749 4758.632389 831.013680 -3360.158669 -1478.933670 -29.742301 838.747384 1973.993678 4035.193229 786.339305 -3708.397154 -2366.969691 -1233.681422 -776.682778 -560.536521 -451.388207 -389.552459 -348.584009 -316.717452 -288.797644 -262.634756 -237.364717 -212.718118 -188.694729 -165.415730 -143.052905 -121.791523 -101.808743 -83.260049 -66.270531 -50.929611 -37.288498 -25.359903 -15.119666 -6.509956 0.556323 6.190261 10.521169 13.690672 15.846945 17.139393 17.713946 17.709143 17.253043 16.461017 15.434356 14.259645 13.008778 11.739514 10.496444 9.312235 8.209059 7.200091 6.291006 5.481420 4.766218 4.136755 3.581914 3.089012 2.644563 2.234878 1.846476 1.466205 1.080831 0.675483 0.229370 -0.294909 -1.003960 -1.799584 -2.335364 -2.634444 -2.688231 -2.688231 -2.688231 18275.412954 18275.412954 18275.412954 18123.383569 15748.847589 11499.862632 11401.918858 12093.189549 12206.203470 12547.445731 10892.049723 11220.198061 12246.094475 11480.542705 11322.700411 11053.294042 10880.049487 10730.872784 9986.587919 8907.793135 8058.631758 6880.983395 5663.315656 5004.546468 5047.038780 5364.420625 5500.233939 5395.498548 5149.847252 4837.091210 4501.483727 4167.988892 3850.722366 3558.202040 3297.540976 3080.254823 2930.880057 2860.812292 2673.022429 1278.579159 -107.355905 54.009784 433.328487 806.679293 1195.017823 1495.396338 431.496959 -1019.412342 -989.467824 -756.957978 -573.853855 -471.383218 -411.485558 -371.546980 -340.407714 -312.987398 -287.097763 -261.874951 -237.051016 -212.625983 -188.721654 -165.514196 -143.199769 -121.974092 -102.018554 -83.490200 -66.514642 -51.181524 -37.542289 -25.610018 -15.361086 -6.738344 0.344508 5.997697 10.349657 13.541157 15.719588 17.033656 17.628718 17.642855 17.203804 16.426733 15.412843 14.248724 13.006355 11.743641 10.505358 9.324387 8.223122 7.214959 6.305789 5.495425 4.778931 4.147823 3.591128 3.096301 2.650002 2.238737 1.849355 1.469363 1.086976 0.690672 0.267937 -0.196626 -0.709124 -1.233485 -1.693424 -1.989228 -2.043305 -2.043305 -2.043305 18539.991618 18539.991618 18539.991618 18480.627336 17838.647932 16477.329661 15799.643029 15371.938377 14991.684449 14527.213096 13961.117838 13592.466754 13318.727957 12908.677788 12460.159470 12019.560337 11563.763583 11043.809926 10398.576335 9656.028202 8875.565206 8084.166749 7350.041149 6778.670175 6395.628537 6122.412039 5857.917334 5557.793180 5223.818704 4872.472716 4519.842872 4177.983303 3854.647139 3553.631617 3274.973799 3014.601224 2761.632203 2487.488362 2119.374092 1605.022179 1120.577572 871.726107 799.055393 793.984416 782.410299 659.999518 328.570825 -66.213828 -293.691098 -375.791792 -395.124792 -389.764956 -374.531124 -354.805233 -332.791927 -309.508924 -285.512350 -261.169700 -236.767044 -212.554776 -188.767988 -165.633773 -143.370717 -122.184008 -102.258742 -83.753234 -66.793460 -51.469205 -37.832127 -25.895704 -15.636906 -6.999355 0.102349 5.777454 10.153395 13.369969 15.573669 16.912412 17.530890 17.566669 17.147111 16.387152 15.387887 14.235910 13.003294 11.748107 10.515338 9.338107 8.239062 7.231854 6.322616 5.511386 4.793434 4.160459 3.601652 3.104620 2.656183 2.243047 1.852379 1.472316 1.092412 0.704133 0.301540 -0.117204 -0.546555 -0.970067 -1.370030 -1.644891 -1.699062 -1.699062 -1.699062 18582.138704 18582.138704 18582.138704 18536.823339 18063.512222 17061.964770 16352.540721 15821.628436 15321.597204 14801.478944 14284.146077 13870.601241 13507.621136 13085.881239 12628.240700 12161.734418 11672.106825 11123.291498 10485.363016 9770.715925 9018.615912 8268.885604 7579.664531 7010.463779 6575.211705 6229.998368 5911.904173 5582.706283 5235.231623 4877.957048 4522.724831 4179.594138 3855.327669 3552.988165 3271.534107 3004.689360 2737.874062 2442.673562 2078.741839 1643.326383 1238.231396 975.509361 849.756025 793.726934 732.539317 588.244025 321.924429 15.459044 -206.742420 -322.472699 -368.099924 -377.136743 -368.768424 -352.187445 -331.599531 -308.963778 -285.263849 -261.059565 -236.723577 -212.545402 -188.777829 -165.655886 -143.401637 -122.221724 -102.301794 -83.800338 -66.843373 -51.520700 -37.884010 -25.946848 -15.686290 -7.046096 0.058975 5.737995 10.118222 13.339281 15.547500 16.890658 17.513328 17.552981 17.136915 16.380022 15.383380 14.233581 13.002716 11.748881 10.517103 9.340546 8.241903 7.234869 6.325622 5.514240 4.796029 4.162721 3.603536 3.106109 2.657287 2.243808 1.852895 1.472779 1.093228 0.706159 0.306567 -0.105938 -0.525062 -0.937072 -1.329881 -1.600102 -1.652939 -1.652939 -1.652939 18582.138704 18582.138704 18582.138704 18536.823339 18063.512222 17061.964770 16352.540721 15821.628436 15321.597204 14801.478944 14284.146077 13870.601241 13507.621136 13085.881239 12628.240700 12161.734418 11672.106825 11123.291498 10485.363016 9770.715925 9018.615912 8268.885604 7579.664531 7010.463779 6575.211705 6229.998368 5911.904173 5582.706283 5235.231623 4877.957048 4522.724831 4179.594138 3855.327669 3552.988165 3271.534107 3004.689360 2737.874062 2442.673562 2078.741839 1643.326383 1238.231396 975.509361 849.756025 793.726934 732.539317 588.244025 321.924429 15.459044 -206.742420 -322.472699 -368.099924 -377.136743 -368.768424 -352.187445 -331.599531 -308.963778 -285.263849 -261.059565 -236.723577 -212.545402 -188.777829 -165.655886 -143.401637 -122.221724 -102.301794 -83.800338 -66.843373 -51.520700 -37.884010 -25.946848 -15.686290 -7.046096 0.058975 5.737995 10.118222 13.339281 15.547500 16.890658 17.513328 17.552981 17.136915 16.380022 15.383380 14.233581 13.002716 11.748881 10.517103 9.340546 8.241903 7.234869 6.325622 5.514240 4.796029 4.162721 3.603536 3.106109 2.657287 2.243808 1.852895 1.472779 1.093228 0.706159 0.306567 -0.105938 -0.525062 -0.937072 -1.329881 -1.600102 -1.652939 -1.652939 -1.652939 18582.138704 18582.138704 18582.138704 18536.823339 18063.512222 17061.964770 16352.540721 15821.628436 15321.597204 14801.478944 14284.146077 13870.601241 13507.621136 13085.881239 12628.240700 12161.734418 11672.106825 11123.291498 10485.363016 9770.715925 9018.615912 8268.885604 7579.664531 7010.463779 6575.211705 6229.998368 5911.904173 5582.706283 5235.231623 4877.957048 4522.724831 4179.594138 3855.327669 3552.988165 3271.534107 3004.689360 2737.874062 2442.673562 2078.741839 1643.326383 1238.231396 975.509361 849.756025 793.726934 732.539317 588.244025 321.924429 15.459044 -206.742420 -322.472699 -368.099924 -377.136743 -368.768424 -352.187445 -331.599531 -308.963778 -285.263849 -261.059565 -236.723577 -212.545402 -188.777829 -165.655886 -143.401637 -122.221724 -102.301794 -83.800338 -66.843373 -51.520700 -37.884010 -25.946848 -15.686290 -7.046096 0.058975 5.737995 10.118222 13.339281 15.547500 16.890658 17.513328 17.552981 17.136915 16.380022 15.383380 14.233581 13.002716 11.748881 10.517103 9.340546 8.241903 7.234869 6.325622 5.514240 4.796029 4.162721 3.603536 3.106109 2.657287 2.243808 1.852895 1.472779 1.093228 0.706159 0.306567 -0.105938 -0.525062 -0.937072 -1.329881 -1.600102 -1.652939 -1.652939 -1.652939 13054.997967 13054.997967 13054.997967 13035.563318 12668.197929 12038.667737 12092.548115 11603.571497 11156.363834 11702.291394 10035.530452 9805.653501 10080.285286 9266.351742 8824.548082 8224.944349 6911.446445 6580.403984 5461.107550 4885.360709 4469.277963 4403.446870 3942.987002 3298.960460 3287.213193 2952.415719 2472.147644 2124.906845 1889.576925 1796.808752 1766.754033 208.453206 -1247.864453 -706.638987 -105.321595 393.854253 1068.459787 993.971001 -832.698869 -1173.445445 -392.546747 358.295530 1068.331226 -201.001182 -1533.607545 -847.162177 7.443409 -955.624417 -2503.740445 -2282.769978 -1920.252767 -1730.396917 -1606.336097 -1518.360933 -1451.567920 -1399.337026 13112.924287 13112.924287 13112.924287 13045.987170 12110.347170 11558.551832 12958.106045 15587.949822 12893.951339 13040.115430 13189.499206 12494.703386 16012.065355 15933.560396 13662.001698 13752.710993 14613.793800 12988.779887 16142.615094 15014.760677 13012.280858 15054.191623 14689.457847 13800.114598 13771.527259 15993.694239 15845.507133 12333.549638 13589.330962 13977.677491 15072.914586 14910.614583 13965.108364 13032.558932 13405.291879 14774.608863 12250.215472 15567.234994 14443.986099 14425.010069 13225.988498 12779.281071 14270.824809 13237.272836 14244.911888 15114.983993 15291.459452 13774.746638 14978.150980 12554.985063 13567.527552 12345.264860 14784.528096 2774.449897 -532.090795 -184.635215 13211.407059 13211.407059 13211.407059 13151.400368 12414.460619 12647.470836 13932.520808 12787.109792 11885.152532 13375.871606 15244.352711 13442.481283 12746.136192 13575.615522 11677.454807 10844.044470 14319.264848 14914.482091 12980.048980 14619.154372 14831.863455 13007.166455 12683.455458 13017.609161 13670.153158 14325.244497 12808.829341 15282.943854 12979.354839 15735.229643 13992.088447 12983.566787 13334.843890 15310.631700 14603.865447 14772.589254 15684.827376 13221.559120 13161.127981 14456.117259 14264.510057 13918.095051 14163.977115 13486.352864 14243.776612 13969.437993 13927.147475 15411.531206 14936.114998 12094.159936 13385.396165 13000.485264 5436.182519 9033.088697 -359.952067 -110.171410 13326.183130 13326.183130 13326.183130 13245.014757 12353.357188 11871.185575 12135.811398 13930.779788 13302.406382 13060.526256 12005.998397 12701.553303 13350.089773 13446.385706 14292.535238 13004.165586 13385.789040 12877.430523 14543.688640 12786.297569 14596.174682 12460.330627 12666.240874 14041.095167 13567.595592 15324.763095 11313.475184 14075.914942 14970.275220 14436.989748 13877.653814 13376.668796 15433.415284 14153.773407 13396.574682 13820.341117 13002.005486 14739.598910 14343.495395 14203.066595 14098.711468 13319.514777 13385.717316 13102.068849 14650.751472 13555.019277 13559.999406 14083.726051 13564.630491 13842.245692 12445.398313 13226.457401 108.767766 11940.829088 3910.393