<VTKFile type="PolyData">
<PolyData>
<Piece NumberOfPoints="8632" NumberOfVerts="8632" NumberOfLines="0" NumberOfStrips="0" NumberOfPolys="0">
<PointData>
<DataArray type="Float64" Name="Pressure" format="ascii">
 8606.524613 8606.524613 8606.524613 8630.714389 8898.592252 9563.149663 10175.161836 10676.944691 11070.411839 11373.912011 11567.976431 11633.792573 11579.120797 11432.239190 11226.429405 10981.843072 10706.435373 10395.662634 10054.769686 9695.701475 9326.341469 8952.055985 8576.715386 8200.484813 7824.835251 7454.815613 7093.349370 6738.919686 6388.805219 6042.131509 5699.027216 5358.601343 5018.240061 4675.577348 4333.398746 3994.419809 3652.745511 3312.928834 2985.429621 2660.236101 2329.559270 2017.932607 1723.805369 1421.296857 1131.913486 735.318103 328.132761 111.901672 42.366565 -79.971565 -240.782469 -337.974031 -457.399943 -655.536151 -822.962732 -886.752701 -862.368502 -787.704805 -691.671997 -590.292932 -491.610526 -399.958844 -317.858911 -246.701926 -186.973919 -138.391308 -100.068681 -70.723652 -48.884799 -33.068842 -21.907959 -14.223820 -9.055942 -5.657091 -3.468916 -2.088768 -1.235355 -0.717736 -0.409672 -0.229721 -0.126540 -0.068465 -0.036379 -0.018981 -0.009723 -0.004889 -0.002413 -0.001168 -0.000555 -0.000259 -0.000118 -0.000053 -0.000023 -0.000010 -0.000004 -0.000002 -0.000001 -0.000000 -0.000000 -0.000000 -0.000000 -0.000000 -0.000000 -0.000000 -0.000000 -0.000000 -0.000000 -0.000000 -0.000000 -0.000000 -0.000000 8606.524613 8606.524613 8606.524613 8630.714389 8898.592252 9563.149663 10175.161836 10676.944691 11070.411839 11373.912011 11567.976431 11633.792573 11579.120797 11432.239190 11226.429405 10981.843072 10706.435373 10395.662634 10054.769686 9695.701475 9326.341469 8952.055985 8576.715386 8200.484813 7824.835251 7454.815613 7093.349370 6738.919686 6388.805219 6042.131509 5699.027216 5358.601343 5018.240061 4675.577348 4333.398746 3994.419809 3652.745511 3312.928834 2985.429621 2660.236101 2329.559270 2017.932607 1723.805369 1421.296857 1131.913486 735.318103 328.132761 111.901672 42.366565 -79.971565 -240.782469 -337.974031 -457.399943 -655.536151 -822.962732 -886.752701 -862.368502 -787.704805 -691.671997 -590.292932 -491.610526 -399.958844 -317.858911 -246.701926 -186.973919 -138.391308 -100.068681 -70.723652 -48.884799 -33.068842 -21.907959 -14.223820 -9.055942 -5.657091 -3.468916 -2.088768 -1.235355 -0.717736 -0.409672 -0.229721 -0.126540 -0.068465 -0.036379 -0.018981 -0.009723 -0.004889 -0.002413 -0.001168 -0.000555 -0.000259 -0.000118 -0.000053 -0.000023 -0.000010 -0.000004 -0.000002 -0.000001 -0.000000 -0.000000 -0.000000 -0.000000 -0.000000 -0.000000 -0.000000 -0.000000 -0.000000 -0.000000 -0.000000 -0.000000 -0.000000 -0.000000 8606.524613 8606.524613 8606.524613 8630.714389 8898.592252 9563.149663 10175.161836 10676.944691 11070.411839 11373.912011 11567.976431 11633.792573 11579.120797 11432.239190 11226.429405 10981.843072 10706.435373 10395.662634 10054.769686 9695.701475 9326.341469 8952.055985 8576.715386 8200.484813 7824.835251 7454.815613 7093.349370 6738.919686 6388.805219 6042.131509 5699.027216 5358.601343 5018.240061 4675.577348 4333.398746 3994.419809 3652.745511 3312.928834 2985.429621 2660.236101 2329.559270 2017.932607 1723.805369 1421.296857 1131.913486 735.318103 328.132761 111.901672 42.366565 -79.971565 -240.782469 -337.974031 -457.399943 -655.536151 -822.962732 -886.752701 -862.368502 -787.704805 -691.671997 -590.292932 -491.610526 -399.958844 -317.858911 -246.701926 -186.973919 -138.391308 -100.068681 -70.723652 -48.884799 -33.068842 -21.907959 -14.223820 -9.055942 -5.657091 -3.468916 -2.088768 -1.235355 -0.717736 -0.409672 -0.229721 -0.126540 -0.068465 -0.036379 -0.018981 -0.009723 -0.004889 -0.002413 -0.001168 -0.000555 -0.000259 -0.000118 -0.000053 -0.000023 -0.000010 -0.000004 -0.000002 -0.000001 -0.000000 -0.000000 -0.000000 -0.000000 -0.000000 -0.000000 -0.000000 -0.000000 -0.000000 -0.000000 -0.000000 -0.000000 -0.000000 -0.000000 8675.461684 8675.461684 8675.461684 8700.788684 8995.904256 9735.239425 10389.605120 10887.877085 11270.085672 11585.249338 11793.724606 11867.297207 11806.759340 11639.871255 11415.427018 11161.701274 10888.366713 10574.173121 10226.205595 9858.516467 9476.994381 9090.405486 8704.240339 8316.357602 7927.244878 7544.629167 7171.727617 6806.237696 6445.564886 6090.355881 5740.925326 5395.295954 5049.743861 4700.137239 4351.613092 4011.160031 3660.132098 3309.793920 2979.810731 2654.621342 2305.019773 1993.102987 1711.473024 1379.173737 1150.692124 706.236228 226.508960 40.542007 46.812703 -80.656761 -278.472900 -337.974259 -427.185513 -673.221428 -862.091804 -918.520903 -880.450439 -796.283013 -695.292528 -591.721768 -492.106374 -400.061671 -317.797459 -246.575859 -186.829340 -138.250884 -99.943590 -70.618629 -48.800663 -33.004081 -21.859845 -14.189197 -9.031744 -5.640628 -3.457992 -2.081688 -1.230867 -0.714951 -0.407979 -0.228712 -0.125951 -0.068127 -0.036190 -0.018877 -0.009666 -0.004859 -0.002397 -0.001161 -0.000551 -0.000257 -0.000117 -0.000053 -0.000023 -0.000010 -0.000004 -0.000002 -0.000001 -0.000000 -0.000000 -0.000000 -0.000000 -0.000000 -0.000000 -0.000000 -0.000000 -0.000000 -0.000000 -0.000000 -0.000000 -0.000000 -0.000000 9450.749761 9450.749761 9450.749761 9512.286521 10287.065016 12161.749026 13473.639263 13803.295504 13995.290138 14524.789608 14869.995939 15136.742830 14974.668921 14471.006532 13941.135640 13545.794523 13291.351456 12830.456184 12404.881981 11911.393851 11360.230385 10838.837386 10374.485525 9863.952617 9351.343987 8843.102380 8310.431401 7764.137228 7252.120484 6765.963103 6280.415320 5805.493186 5374.054841 4940.191737 4530.361462 4228.812779 3737.169981 3195.312227 2844.475487 2596.687049 1831.891229 1617.655276 1656.909403 473.582216 2066.457496 249.952179 -1059.721068 -849.780871 605.436142 -36.749115 -1083.670128 -160.085877 148.715939 -1008.703459 -1403.975821 -1289.835503 -1078.882279 -881.848150 -730.850167 -605.614550 -496.886544 -401.013493 -317.149455 -245.299647 -185.375977 -136.843093 -98.691446 -69.568567 -47.960299 -32.357859 -21.380173 -13.844335 -8.790932 -5.476935 -3.349470 -2.011409 -1.186355 -0.687352 -0.391215 -0.218732 -0.120125 -0.064793 -0.034319 -0.017847 -0.009111 -0.004565 -0.002245 -0.001083 -0.000513 -0.000238 -0.000108 -0.000048 -0.000021 -0.000009 -0.000004 -0.000002 -0.000001 -0.000000 -0.000000 -0.000000 -0.000000 -0.000000 -0.000000 -0.000000 -0.000000 -0.000000 -0.000000 -0.000000 -0.000000 -0.000000 -0.000000 10633.654504 10633.654504 10633.654504 10763.327281 13102.339359 18211.535352 20563.956171 20027.514237 19856.219831 21365.514106 21148.736044 21704.140711 21463.372787 19934.526576 18769.485904 17990.565608 17926.965306 16374.716477 15987.850474 15188.603296 14440.042787 13886.225848 13488.164386 13026.429846 12448.383253 11665.280752 10782.687592 9931.270133 9093.081039 8232.378783 7278.116501 6366.196693 5738.620331 5126.633019 4432.869147 4933.312337 3394.371726 2891.242765 1989.598237 3539.266967 -691.674179 1654.209402 2663.487612 -4511.007499 6522.701500 -1491.211003 -4373.204397 -2137.068119 1977.670266 -196.027007 -2768.680369 150.646767 827.642866 -1901.457574 -2288.843615 -1799.090108 -1403.682867 -1018.807916 -785.264103 -626.929638 -504.521499 -402.969495 -316.753429 -243.976970 -183.769585 -135.258724 -97.274860 -68.379989 -47.010470 -31.629179 -20.840787 -13.457680 -8.521745 -5.294501 -3.228881 -1.933545 -1.137182 -0.656951 -0.372802 -0.207802 -0.113765 -0.061164 -0.032288 -0.016734 -0.008512 -0.004250 -0.002082 -0.001001 -0.000472 -0.000218 -0.000099 -0.000044 -0.000019 -0.000008 -0.000003 -0.000001 -0.000001 -0.000000 -0.000000 -0.000000 -0.000000 -0.000000 -0.000000 -0.000000 -0.000000 -0.000000 -0.000000 -0.000000 -0.000000 -0.000000 -0.000000 -0.000000 -0.000000 -0.000000 -0.000000 -0.000000 -0.000000 -0.000000 -0.000000 -0.000000 -0.000000 -0.000000 -0.000000 -0.000000 -0.000000 -0.000000 -0.000000 -0.000000 -0.000000 -0.000000 -0.000000 -0.000000 -0.000000 -0.000000 -0.000000 -0.000000 -0.000000 -0.000000 -0.000000 -0.000000 -0.000000 -0.000000 -0.000000 -0.000000 -0.000000 -0.000000 -0.000000 -0.000000 -0.000000 -0.000000 -0.000000 -0.000000 -0.000000 -0.000000 -0.000000 -0.000000 -0.000000 -0.000000 -0.000000 -0.000000 -0.000000 -0.000000 -0.000000 -0.000000 -0.000000 -0.000000 -0.000000 -0.000000 -0.000000 -0.000000 -0.000000 -0.000000 -0.000000 -0.000000 -0.000000 -0.000000 -0.000000 -0.000000 -0.000000 -0.000000 -0.000000 -0.000000 -0.000000 -0.000000 -0.000000 -0.000000 -0.000000 -0.000000 -0.000000 -0.000000 -0.000000 -0.000000 -0.000000 -0.000000 -0.000000 -0.000000 -0.000000 -0.000000 -0.000000 -0.000000 -0.000000 -0.000000 -0.000000 -0.000000 -0.000000 -0.000000 -0.000000 -0.000000 -0.000000 -0.000000 -0.000000 -0.000000 -0.000000 -0.000000 -0.000000 -0.000000 -0.000000 -0.000000 -0.000000 -0.000000 -0.000000 -0.000000 -0.000000 -0.000000 -0.000000 -0.000000 -0.000000 -0.000000 -0.000000 -0.000000 -0.000000 -0.000000 -0.000000 -0.000000 -0.000000 -0.000000 -0.000000 -0.000000 -0.000000 -0.000000 -0.000000 -0.000000 -0.000000 -0.000000 -0.000000 -0.000000 -0.000000 -0.000000 -0.000000 -0.000000 -0.000000 -0.000000 -0.000000 -0.000000 -0.000000 -0.000000 -0.000000 -0.000000 -0.000000 -0.000000 -0.000000 -0.000000 -0.000000 -0.000000 -0.000000 -0.000000 -0.000000 -0.000000 -0.000000 -0.000000 -0.000000 -0.000000 -0.000000 -0.000000 -0.000000 -0.000000 -0.000000 -0.000000 -0.000000 -0.000000 -0.000000 -0.000000 -0.000000 -0.000000 -0.000000 -0.000000 -0.000000 -0.000000 -0.000000 -0.000000 -0.000000 -0.000000 -0.000000 -0.000000 -0.000000 -0.000000 -0.000000 -0.000000 -0.000000 -0.000000 -0.000000 -0.000000 -0.000000 -0.000000 -0.000000 -0.000000 -0.000000 -0.000000 -0.000000 -0.000000 -0.000000 -0.000000 -0.000000 -0.000000 -0.000000 -0.000000 -0.000000 -0.000000 -0.000000 -0.000000 -0.000000 -0.000000 -0.000000 -0.000000 -0.000000 -0.000000 -0.000000 -0.000000 -0.000000 -0.000000 -0.000000 -0.000000 -0.000000 -0.000000 -0.000000 -0.000000 -0.000000 -0.000000 -0.000000 -0.000000 -0.000000 -0.000000 -0.000000 -0.000000 -0.000000 -0.000000 -0.000000 -0.000000 -0.000000 -0.000000 -0.000000 -0.000000 -0.000000 -0.000000 -0.000000 -0.000000 -0.000000 -0.000000 -0.000000 -0.000000 -0.000000 -0.000000 -0.000000 -0.000000 -0.000000 -0.000000 -0.000000 -0.000000 -0.000000 -0.000000 -0.000000 -0.000000 -0.000000 -0.000000 -0.000000 -0.000000 -0.000000 -0.000000 -0.000000 -0.000000 -0.000000 -0.000000 -0.000000 -0.000000 -0.000000 -0.000000 -0.000000 -0.000000 -0.000000 -0.000000 0.000000 0.000000 0.000000 -0.000000 -0.000000 -0.000000 0.000000 0.000000 0.000000 -0.000000 -0.000000 -0.000000 0.000000 0.000000 0.000000 -0.000000 -0.000000 -0.000000 0.000000 0.000000 0.000000 -0.000000 -0.000000 -0.000000 0.000000 0.000000 0.000000 -0.000000 -0.000000 -0.000000 0.000000 0.000000 0.000000 -0.000000 -0.000000 -0.000000 0.000000 0.000000 0.000000 -0.000000 -0.000000 -0.000000 0.000000 0.000000 0.000000 -0.000000 -0.000000 -0.000000 0.000000 0.000000 0.000000 -0.000000 -0.000000 -0.000000 0.000000 0.000000 0.000000 -0.000000 -0.000000 -0.000000 0.000000 0.000000 0.000000 -0.000000 -0.000000 -0.000000 0.000000 0.000000 0.000000 -0.000000 -0.000000 -0.000000 0.000000 0.000000 0.000000 -0.000000 -0.000000 -0.000000 0.000000 0.000000 0.000000 -0.000000 -0.000000 -0.000000 0.000000 0.000000 0.000000 -0.000000 -0.000000 -0.000000 0.000000 0.000000 0.000000 -0.000000 -0.000000 -0.000000 0.000000 0.000000 0.000000 -0.000000 -0.000000 -0.000000 0.000000 0.000000 0.000000 -0.000000 -0.000000 -0.000000 0.000000 0.000000 0.000000 -0.000000 -0.000000 -0.000000 0.000000 0.000000 0.000000 -0.000000 -0.000000 -0.000000 0.000000 0.000000 0.000000 -0.000000 -0.000000 -0.000000 0.000000 0.000000 0.000000 -0.000000 -0.000000 -0.000000 0.000000 0.000000 0.000000 -0.000000 -0.000000 -0.000000 0.000000 0.000000 0.000000 -0.000000 -0.000000 -0.000000 0.000000 0.000000 0.000000 -0.000000 -0.000000 -0.000000 0.000000 0.000000 0.000000 -0.000000 -0.000000 -0.000000 0.000000 0.000000 0.000000 -0.000000 -0.000000 -0.000000 0.000000 0.000000 0.000000 -0.000000 -0.000000 -0.000000 0.000000 0.000000 0.000000 -0.000000 -0.000000 -0.000000 0.000000 0.000000 0.000000 -0.000000 -0.000000 -0.000000 0.000000 0.000000 0.000000 -0.000000 -0.000000 -0.000000 0.000000 0.000000 0.000000 -0.000000 -0.000000 -0.000000 0.000000 0.000000 0.000000 -0.000000 -0.000000 -0.000000 0.000000 0.000000 0.000000 -0.000000 -0.000000 -0.000000 0.000000 0.000000 0.000000 -0.000000 -0.000000 -0.000000 0.000000 0.000000 0.000000 -0.000000 -0.000000 -0.000000 0.000000 0.000000 0.000000 -0.000000 -0.000000 -0.000000 0.000000 0.000000 0.000000 -0.000000 -0.000000 -0.000000 0.000000 0.000000 0.000000 -0.000000 -0.000000 -0.000000 0.000000 0.000000 0.000000 -0.000000 -0.000000 -0.000000 0.000000 0.000000 0.000000 -0.000000 -0.000000 -0.000000 0.000000 0.000000 0.000000 -0.000000 -0.000000 -0.000000 0.000000 0.000000 0.000000 -0.000000 -0.000000 -0.000000 0.000000 0.000000 0.000000 -0.000000 -0.000000 -0.000000 0.000000 0.000000 0.000000 -0.000000 -0.000000 -0.000000 0.000000 0.000000 0.000000 -0.000000 -0.000000 -0.000000 0.000000 0.000000 0.000000 -0.000000 -0.000000 -0.000000 0.000000 0.000000 0.000000 -0.000000 -0.000000 -0.000000 0.000000 0.000000 0.000000 -0.000000 -0.000000 -0.000000 0.000000 0.000000 0.000000 -0.000000 -0.000000 -0.000000 0.000000 0.000000 0.000000 -0.000000 -0.000000 -0.000000 0.000000 0.000000 0.000000 -0.000000 -0.000000 -0.000000 0.000000 0.000000 0.000000 -0.000000 -0.000000 -0.000000 0.000000 0.000000 0.000000 -0.000000 -0.000000 -0.000000 0.000000 0.000000 0.000000 -0.000000 -0.000000 -0.000000 0.000000 0.000000 0.000000 -0.000000 -0.000000 -0.000000 0.000000 0.000000 0.000000 -0.000000 -0.000000 -0.000000 0.000000 0.000000 0.000000 -0.000000 -0.000000 -0.000000 0.000000 0.000000 0.000000 -0.000000 -0.000000 -0.000000 0.000000 0.000000 0.000000 -0.000000 -0.000000 -0.000000 0.000000 0.000000 0.000000 -0.000000 -0.000000 -0.000000 0.000000 0.000000 0.000000 -0.000000 -0.000000 -0.000000 0.000000 0.000000 0.000000 -0.000000 -0.000000 -0.000000 0.000000 0.000000 0.000000 -0.000000 -0.000000 -0.000000 0.000000 0.000000 0.000000 -0.000000 -0.000000 -0.000000 0.000000 0.000000 0.000000 -0.000000 -0.000000 -0.000000 0.000000 0.000000 0.000000 -0.000000 -0.000000 -0.000000 0.000000 0.000000 0.000000 -0.000000 -0.000000 -0.000000 0.000000 0.000000 0.000000 -0.000000 -0.000000 -0.000000 0.000000 0.000000 0.000000 -0.000000 -0.000000 -0.000000 0.000000 0.000000 0.000000 -0.000000 -0.000000 -0.000000 0.000000 0.000000 0.000000 -0.000000 -0.000000 -0.000000 0.000000 0.000000 0.000000 -0.000000 -0.000000 -0.000000 0.000000 0.000000 0.000000 -0.000000 -0.000000 -0.000000 0.000000 0.000000 0.000000 -0.000000 -0.000000 -0.000000 0.000000 0.000000 0.000000 -0.000000 -0.000000 -0.000000 0.000000 0.000000 0.000000 -0.000000 -0.000000 -0.000000 0.000000 0.000000 0.000000 -0.000000 -0.000000 -0.000000 0.000000 0.000000 0.000000 -0.000000 -0.000000 -0.000000 0.000000 0.000000 0.000000 -0.000000 -0.000000 -0.000000 0.000000 0.000000 0.000000 -0.000000 -0.000000 -0.000000 0.000000 0.000000 0.000000 -0.000000 -0.000000 -0.000000 0.000000 0.000000 0.000000 -0.000000 -0.000000 -0.000000 0.000000 0.000000 0.000000 -0.000000 -0.000000 -0.000000 0.000000 0.000000 0.000000 -0.000000 -0.000000 -0.000000 0.000000 0.000000 0.000000 -0.000000 -0.000000 -0.000000 0.000000 0.000000 0.000000 -0.000000 -0.000000 -0.000000 0.000000 0.000000 0.000000 -0.000000 -0.000000 -0.000000 0.000000 0.000000 0.000000 -0.000000 -0.000000 -0.000000 0.000000 0.000000 0.000000 -0.000000 -0.000000 -0.000000 0.000000 0.000000 0.000000 -0.000000 -0.000000 -0.000000 0.000000 0.000000 0.000000 -0.000000 -0.000000 -0.000000 0.000000 0.000000 0.000000 -0.000000 -0.000000 -0.000000 0.000000 0.000000 0.000000 -0.000000 -0.000000 -0.000000 0.000000 0.000000 0.000000 -0.000000 -0.000000 -0.000000 0.000000 0.000000 0.000000 -0.000000 -0.000000 -0.000000 0.000000 0.000000 0.000000 -0.000000 -0.000000 -0.000000 0.000000 0.000000 0.000000 -0.000000 -0.000000 -0.000000 0.000000 0.000000 0.000000 -0.000000 -0.000000 -0.000000 0.000000 0.000000 0.000000 -0.000000 -0.000000 -0.000000 0.000000 0.000000 0.000000 -0.000000 -0.000000 -0.000000 0.000000 0.000000 0.000000 -0.000000 -0.000000 -0.000000 0.000000 0.000000 0.000000 -0.000000 -0.000000 -0.000000 0.000000 0.000000 0.000000 -0.000000 -0.000000 -0.000000 0.000000 0.000000 0.000000 -0.000000 -0.000000 -0.000000 0.000000 0.000000 0.000000 -0.000000 -0.000000 -0.000000 0.000000 0.000000 0.000000 -0.000000 -0.000000 -0.000000 0.000000 0.000000 0.000000 -0.000000 -0.000000 -0.000000 0.000000 0.000000 0.000000 -0.000000 -0.000000 -0.000000 0.000000 0.000000 0.000000 -0.000000 -0.000000 -0.000000 0.000000 0.000000 0.000000 -0.000000 -0.000000 -0.000000 0.000000 0.000000 0.000000 -0.000000 -0.000000 -0.000000 0.000000 0.000000 0.000000 -0.000000 -0.000000 -0.000000 0.000000 0.000000 0.000000 -0.000000 -0.000000 -0.000000 -0.000000 -0.000000 -0.000000 -0.000000 -0.000000 -0.000000 -0.000000 -0.000000 -0.000000 -0.000000 -0.000000 -0.000000 -0.000000 -0.000000 -0.000000 -0.000000 -0.000000 -0.000000 -0.000000 -0.000000 -0.000000 -0.000000 -0.000000 -0.000000 -0.000000 -0.000000 -0.000000 0.000000 -0.000000 -0.000000 -0.000000 -0.000000 -0.000000 0.000000 -0.000000 -0.000000 -0.000000 -0.000000 -0.000000 0.000000 -0.000000 -0.000000 -0.000000 -0.000000 -0.000000 0.000000 -0.000000 -0.000000 -0.000000 -0.000000 -0.000000 0.000000 -0.000000 -0.000000 -0.000000 -0.000000 -0.000000 0.000000 -0.000000 -0.000000 -0.000000 -0.000000 -0.000000 0.000000 -0.000000 -0.000000 -0.000000 -0.000000 -0.000000 0.000000 -0.000000 -0.000000 -0.000000 -0.000000 -0.000000 0.000000 -0.000000 -0.000000 -0.000000 -0.000000 -0.000000 0.000000 -0.000000 -0.000000 -0.000000 -0.000000 -0.000000 0.000000 -0.000000 -0.000000 -0.000000 -0.000000 -0.000000 0.000000 -0.000000 -0.000000 -0.000000 -0.000000 -0.000000 0.000000 -0.000000 -0.000000 -0.000000 -0.000000 -0.000000 0.000000 -0.000000 -0.000000 -0.000000 -0.000000 -0.000000 0.000000 -0.000000 -0.000000 -0.000000 -0.000000 -0.000000 0.000000 -0.000000 -0.000000 -0.000000 -0.000000 -0.000000 0.000000 -0.000000 -0.000000 -0.000000 -0.000000 -0.000000 0.000000 -0.000000 -0.000000 -0.000000 -0.000000 -0.000000 0.000000 -0.000000 -0.000000 -0.000000 -0.000000 -0.000000 0.000000 -0.000000 -0.000000 -0.000000 -0.000000 -0.000000 0.000000 -0.000000 -0.000000 -0.000000 -0.000000 -0.000000 0.000000 -0.000000 -0.000000 -0.000000 -0.000000 -0.000000 0.000000 -0.000000 -0.000000 -0.000000 -0.000000 -0.000000 0.000000 -0.000000 -0.000000 -0.000000 -0.000000 -0.000000 0.000000 -0.000000 -0.000000 -0.000000 -0.000000 -0.000000 0.000000 -0.000000 -0.000000 -0.000000 -0.000000 -0.000000 0.000000 -0.000000 -0.000000 -0.000000 -0.000000 -0.000000 0.000000 -0.000000 -0.000000 -0.000000 -0.000000 -0.000000 0.000000 -0.000000 -0.000000 -0.000000 -0.000000 -0.000000 0.000000 -0.000000 -0.000000 -0.000000 -0.000000 -0.000000 0.000000 -0.000000 -0.000000 -0.000000 -0.000000 -0.000000 0.000000 -0.000000 -0.000000 -0.000000 -0.000000 -0.000000 0.000000 -0.000000 -0.000000 -0.000000 -0.000000 -0.000000 0.000000 -0.000000 -0.000000 -0.000000 -0.000000 -0.000000 -0.000000 -0.000000 0.000000 0.000000 0.000000 0.000000 9835.913301 9835.913301 9835.913301 9908.515336 11164.596420 15193.763096 15186.653243 18635.599571 19834.502882 14660.153424 16981.107954 12323.999210 11416.486897 11904.932087 12603.923353 11217.318155 10545.073724 9355.443144 8377.604288 7082.629345 5752.966656 5235.419254 3778.241157 867.082705 2170.958322 3754.014474 1625.617222 656.718412 265.220399 101.264589 35.298675 10.016481 0.340504 -3.890120 -6.227064 -7.638549 -8.300707 -8.273752 -7.682043 -6.710261 -5.554746 -4.382305 -3.309707 -2.401473 -1.678926 -1.133692 -0.740866 -0.469353 -0.288669 -0.172573 -0.100387 -0.056874 -0.031406 -0.016915 -0.008892 -0.004564 -0.002289 -0.001122 -0.000537 -0.000252 -0.000115 -0.000052 -0.000023 -0.000010 -0.000004 -0.000002 -0.000001 -0.000000 -0.000000 -0.000000 -0.000000 -0.000000 -0.000000 -0.000000 -0.000000 -0.000000 -0.000000 -0.000000 -0.000000 -0.000000 -0.000000 -0.000000 -0.000000 -0.000000 -0.000000 -0.000000 -0.000000 -0.000000 -0.000000 -0.000000 -0.000000 -0.000000 -0.000000 -0.000000 -0.000000 -0.000000 -0.000000 -0.000000 -0.000000 -0.000000 -0.000000 -0.000000 -0.000000 -0.000000 -0.000000 -0.000000 -0.000000 0.000000 -0.000000 -0.000000 -0.000000 8223.640679 8223.640679 8223.640679 8307.083054 9177.693475 11625.134024 11953.447323 12554.832626 14257.008713 12181.998162 12876.559718 10923.230150 10140.773804 10691.673787 11019.052435 9827.843438 8829.672167 7611.997904 6562.153199 5521.339609 4567.912756 3947.394052 2868.244789 1586.249517 1448.924250 1493.456931 980.500885 499.323019 230.862139 99.961572 40.310617 14.360244 3.019772 -2.427405 -5.450077 -7.210650 -8.051115 -8.124979 -7.598693 -6.672813 -5.549035 -4.396552 -3.334309 -2.429305 -1.705367 -1.156277 -0.758730 -0.482647 -0.298067 -0.178926 -0.104513 -0.059456 -0.032968 -0.017831 -0.009412 -0.004851 -0.002443 -0.001202 -0.000579 -0.000272 -0.000125 -0.000056 -0.000025 -0.000011 -0.000005 -0.000002 -0.000001 -0.000000 -0.000000 -0.000000 -0.000000 -0.000000 -0.000000 -0.000000 -0.000000 -0.000000 -0.000000 -0.000000 -0.000000 -0.000000 -0.000000 -0.000000 -0.000000 -0.000000 -0.000000 -0.000000 -0.000000 0.000000 -0.000000 -0.000000 0.000000 -0.000000 -0.000000 -0.000000 -0.000000 -0.000000 -0.000000 -0.000000 -0.000000 -0.000000 0.000000 -0.000000 -0.000000 0.000000 -0.000000 -0.000000 -0.000000 -0.000000 -0.000000 -0.000000 -0.000000 7325.499794 7325.499794 7325.499794 7384.546798 8061.949746 9596.259014 10756.409846 11451.574933 12190.548000 12063.957837 11765.296267 11060.798947 10261.816484 9524.993957 8790.968856 7971.485606 7117.019557 6264.283847 5440.407597 4654.701319 3909.656633 3186.191364 2451.789646 1792.368891 1325.364710 973.172469 646.510158 380.544160 202.885368 99.778398 45.495213 18.691676 5.662806 -0.989488 -4.682135 -6.780209 -7.793137 -7.966723 -7.507711 -6.630842 -5.541944 -4.411906 -3.361604 -2.460564 -1.735313 -1.182028 -0.779218 -0.497975 -0.308957 -0.186323 -0.109338 -0.062490 -0.034812 -0.018916 -0.010032 -0.005195 -0.002628 -0.001300 -0.000628 -0.000297 -0.000137 -0.000062 -0.000028 -0.000012 -0.000005 -0.000002 -0.000001 -0.000000 -0.000000 -0.000000 -0.000000 -0.000000 -0.000000 -0.000000 -0.000000 -0.000000 -0.000000 -0.000000 -0.000000 -0.000000 -0.000000 -0.000000 -0.000000 -0.000000 -0.000000 -0.000000 -0.000000 -0.000000 -0.000000 -0.000000 -0.000000 -0.000000 -0.000000 -0.000000 -0.000000 -0.000000 -0.000000 -0.000000 -0.000000 -0.000000 -0.000000 -0.000000 -0.000000 -0.000000 -0.000000 -0.000000 -0.000000 0.000000 0.000000 0.000000 0.000000 7201.322955 7201.322955 7201.322955 7256.018790 7858.941051 9296.418660 10494.293727 11392.818268 11930.161492 11957.347827 11586.529645 10925.906480 10133.006342 9326.357503 8525.590394 7710.253857 6890.919597 6080.665422 5293.880312 4537.137513 3808.392210 3097.357503 2405.630297 1789.195227 1303.329260 922.729901 608.581300 364.678990 198.987226 99.907387 46.387021 19.412162 6.097600 -0.754052 -4.556149 -6.708839 -7.749633 -7.939559 -7.491850 -6.623411 -5.540617 -4.414560 -3.366407 -2.466104 -1.740646 -1.186632 -0.782893 -0.500733 -0.310922 -0.187661 -0.110213 -0.063042 -0.035148 -0.019114 -0.010145 -0.005258 -0.002662 -0.001318 -0.000638 -0.000302 -0.000140 -0.000063 -0.000028 -0.000012 -0.000005 -0.000002 -0.000001 -0.000000 -0.000000 -0.000000 -0.000000 -0.000000 -0.000000 -0.000000 -0.000000 -0.000000 -0.000000 -0.000000 -0.000000 -0.000000 -0.000000 -0.000000 -0.000000 -0.000000 -0.000000 -0.000000 -0.000000 -0.000000 -0.000000 -0.000000 -0.000000 -0.000000 -0.000000 -0.000000 -0.000000 -0.000000 -0.000000 -0.000000 -0.000000 -0.000000 -0.000000 -0.000000 -0.000000 -0.000000 -0.000000 0.000000 0.000000 0.000000 0.000000 0.000000 0.000000 7201.322955 7201.322955 7201.322955 7256.018790 7858.941051 9296.418660 10494.293727 11392.818268 11930.161492 11957.347827 11586.529645 10925.906480 10133.006342 9326.357503 8525.590394 7710.253857 6890.919597 6080.665422 5293.880312 4537.137513 3808.392210 3097.357503 2405.630297 1789.195227 1303.329260 922.729901 608.581300 364.678990 198.987226 99.907387 46.387021 19.412162 6.097600 -0.754052 -4.556149 -6.708839 -7.749633 -7.939559 -7.491850 -6.623411 -5.540617 -4.414560 -3.366407 -2.466104 -1.740646 -1.186632 -0.782893 -0.500733 -0.310922 -0.187661 -0.110213 -0.063042 -0.035148 -0.019114 -0.010145 -0.005258 -0.002662 -0.001318 -0.000638 -0.000302 -0.000140 -0.000063 -0.000028 -0.000012 -0.000005 -0.000002 -0.000001 -0.000000 -0.000000 -0.000000 -0.000000 -0.000000 -0.000000 -0.000000 -0.000000 -0.000000 -0.000000 -0.000000 -0.000000 -0.000000 -0.000000 -0.000000 -0.000000 -0.000000 -0.000000 -0.000000 -0.000000 -0.000000 -0.000000 -0.000000 -0.000000 -0.000000 -0.000000 -0.000000 -0.000000 -0.000000 -0.000000 -0.000000 -0.000000 -0.000000 -0.000000 -0.000000 -0.000000 -0.000000 -0.000000 0.000000 0.000000 0.000000 0.000000 0.000000 0.000000 7201.322955 7201.322955 7201.322955 7256.018790 7858.941051 9296.418660 10494.293727 11392.818268 11930.161492 11957.347827 11586.529645 10925.906480 10133.006342 9326.357503 8525.590394 7710.253857 6890.919597 6080.665422 5293.880312 4537.137513 3808.392210 3097.357503 2405.630297 1789.195227 1303.329260 922.729901 608.581300 364.678990 198.987226 99.907387 46.387021 19.412162 6.097600 -0.754052 -4.556149 -6.708839 -7.749633 -7.939559 -7.491850 -6.623411 -5.540617 -4.414560 -3.366407 -2.466104 -1.740646 -1.186632 -0.782893 -0.500733 -0.310922 -0.187661 -0.110213 -0.063042 -0.035148 -0.019114 -0.010145 -0.005258 -0.002662 -0.001318 -0.000638 -0.000302 -0.000140 -0.000063 -0.000028 -0.000012 -0.000005 -0.000002 -0.000001 -0.000000 -0.000000 -0.000000 -0.000000 -0.000000 -0.000000 -0.000000 -0.000000 -0.000000 -0.000000 -0.000000 -0.000000 -0.000000 -0.000000 -0.000000 -0.000000 -0.000000 -0.000000 -0.000000 -0.000000 -0.000000 -0.000000 -0.000000 -0.000000 -0.000000 -0.000000 -0.000000 -0.000000 -0.000000 -0.000000 -0.000000 -0.000000 -0.000000 -0.000000 -0.000000 -0.000000 -0.000000 -0.000000 0.000000 0.000000 0.000000 0.000000 0.000000 0.000000 10804.484804 10804.484804 10804.484804 10953.728144 13740.201842 19506.529124 21873.449051 21376.622170 21328.027748 22925.442042 22439.240550 23034.888559 22534.290246 20869.732404 19636.047578 18854.416651 18790.756389 16883.366983 16530.859910 15783.568207 14912.704345 14389.877977 14154.650657 13559.810435 13045.746984 12271.292110 11285.925428 10332.931257 9524.728689 8576.217190 7471.425946 6425.441679 5830.463230 5236.542574 4426.920483 5071.236502 3328.112585 2814.737815 1723.634030 3886.876710 -1655.776835 1305.725351 2214.362804 -6972.023750 6864.482017 -2138.705347 -5384.867615 -2474.905110 2078.377262 -281.918040 -2961.911503 168.630643 824.622919 -2046.275541 -2381.026528 -1844.983199 12015.221672 12015.221672 12015.221672 12339.641985 16678.503395 23474.134904 23700.256128 27109.330277 28268.823022 33335.488057 32181.095111 32330.669644 32427.720970 31640.339666 29566.778538 28585.785888 28260.272938 25720.896710 25797.718201 25477.200310 24934.364626 24345.510328 23563.715696 22468.647490 21197.470098 20637.699843 20311.800526 19336.995916 18820.048920 18334.449338 17903.945985 17397.897255 16625.893004 15922.169455 15311.990220 14410.079814 13541.627562 12718.246616 12013.737124 11262.905084 10211.995023 9140.026335 8155.862207 7430.357635 7047.130185 6688.744925 5847.747346 5171.316138 5326.980742 4610.210317 3335.008828 1909.132082 3034.297711 -204.302520 598.581722 875.270103 14057.463966 14057.463966 14057.463966 14227.598149 16878.320273 25634.493556 35959.428710 40225.367812 29614.480999 36027.942111 35179.134554 36504.189066 32053.272026 34250.198700 31481.613712 35185.581828 30060.522046 31510.101162 28274.753689 29209.966286 27709.586237 26660.350583 26742.920912 26052.086514 24577.603826 23855.870871 23229.618678 22829.079211 22372.814348 21398.123586 20910.986327 20574.080583 19864.377139 18987.127768 18016.363060 17041.313601 16138.016542 15066.055748 14036.543543 13080.674898 12131.905524 11201.797489 10183.771865 9124.409534 8027.453621 7377.907665 6785.444411 6179.355791 5793.364458 5489.308330 4402.428518 3398.992575 1127.226219 1350.138652 -1802.110069 4382.598244 16084.754334 16084.754334 16084.754334 16286.322347 18721.933032 30505.095642 32330.489773 40896.878291 39066.881257 40154.209860 41191.027129 40409.330712 42359.880205 37908.018787 38103.215593 32455.517812 35942.036970 34771.986367 35259.347229 33035.621785 32356.437337 31203.692519 31514.825107 30265.831819 29157.834946 28571.959570 27025.644526 26047.938832 25183.526992 24679.527321 24213.662705 23561.164400 22557.132215 21468.835794 20307.555694 19122.390717 17960.161436 16670.904510 15416.959199 14160.580254 12971.306965 11792.022494 10558.277976 9441.156338 8289.922906 7470.086321 6845.320158 6819.005138 6034.117684 5675.259563 4528.359523 3834.090703 2905.539804 882.925371 1033.181801 44.730389 17934.751349 17934.751349 17934.751349 18188.747869 21120.156155 31314.755711 34924.836046 39589.282968 41217.333611 40473.631577 42489.000082 41918.731090 39998.003741 40229.717354 38948.070497 39453.549428 37875.598192 38922.168539 35697.275322 35446.744738 33625.826947 32939.781006 31731.327238 31209.122693 30280.585386 29677.859291 28520.386025 27674.911177 26905.374128 26106.537663 25222.158533 24360.378888 23121.530119 21869.522271 20488.069296 19095.667486 17866.794890 16666.518584 15586.993321 14464.429223 13236.549224 11946.750635 10517.736155 9182.087250 7861.521445 7027.451524 6323.343518 5859.352364 5577.308304 5096.392747 5016.453347 3443.286375 2733.590243 1920.056450 136.789631 78.415492 19500.361961 19500.361961 1950