<VTKFile type="PolyData">
<PolyData>
<Piece NumberOfPoints="8632" NumberOfVerts="8632" NumberOfLines="0" NumberOfStrips="0" NumberOfPolys="0">
<PointData>
<DataArray type="Float64" Name="Pressure" format="ascii">
 14.524930 14.524930 14.524930 17.368562 46.283717 100.848567 120.069971 109.393761 86.586448 62.929403 42.856616 27.617223 16.996138 10.144034 6.036338 3.736226 2.529062 1.932945 1.654885 1.531987 1.480366 1.459704 1.451803 1.448911 1.447896 1.447553 1.447442 1.447407 1.447396 1.447393 1.447392 1.447392 1.447392 1.447392 1.447392 1.447392 1.447393 1.447395 1.447402 1.447417 1.447452 1.447525 1.447652 1.447809 1.447792 1.446856 1.442866 1.430355 1.396387 1.310344 1.089268 0.419988 -2.087086 -10.588624 -28.949799 -48.005148 -48.835931 -32.116716 -14.879327 -5.256893 -1.486530 -0.344344 -0.066056 -0.010540 -0.001399 -0.000154 -0.000014 -0.000001 -0.000000 -0.000000 -0.000000 -0.000000 -0.000000 -0.000000 -0.000000 -0.000000 -0.000000 -0.000000 -0.000000 -0.000000 -0.000000 -0.000000 -0.000000 -0.000000 -0.000000 -0.000000 -0.000000 -0.000000 -0.000000 -0.000000 -0.000000 -0.000000 -0.000000 -0.000000 -0.000000 -0.000000 -0.000000 -0.000000 -0.000000 -0.000000 -0.000000 -0.000000 -0.000000 -0.000000 -0.000000 -0.000000 -0.000000 -0.000000 -0.000000 -0.000000 -0.000000 14.524930 14.524930 14.524930 17.368562 46.283717 100.848567 120.069971 109.393761 86.586448 62.929403 42.856616 27.617223 16.996138 10.144034 6.036338 3.736226 2.529062 1.932945 1.654885 1.531987 1.480366 1.459704 1.451803 1.448911 1.447896 1.447553 1.447442 1.447407 1.447396 1.447393 1.447392 1.447392 1.447392 1.447392 1.447392 1.447392 1.447393 1.447395 1.447402 1.447417 1.447452 1.447525 1.447652 1.447809 1.447792 1.446856 1.442866 1.430355 1.396387 1.310344 1.089268 0.419988 -2.087086 -10.588624 -28.949799 -48.005148 -48.835931 -32.116716 -14.879327 -5.256893 -1.486530 -0.344344 -0.066056 -0.010540 -0.001399 -0.000154 -0.000014 -0.000001 -0.000000 -0.000000 -0.000000 -0.000000 -0.000000 -0.000000 -0.000000 -0.000000 -0.000000 -0.000000 -0.000000 -0.000000 -0.000000 -0.000000 -0.000000 -0.000000 -0.000000 -0.000000 -0.000000 -0.000000 -0.000000 -0.000000 -0.000000 -0.000000 -0.000000 -0.000000 -0.000000 -0.000000 -0.000000 -0.000000 -0.000000 -0.000000 -0.000000 -0.000000 -0.000000 -0.000000 -0.000000 -0.000000 -0.000000 -0.000000 -0.000000 -0.000000 -0.000000 14.524930 14.524930 14.524930 17.368562 46.283717 100.848567 120.069971 109.393761 86.586448 62.929403 42.856616 27.617223 16.996138 10.144034 6.036338 3.736226 2.529062 1.932945 1.654885 1.531987 1.480366 1.459704 1.451803 1.448911 1.447896 1.447553 1.447442 1.447407 1.447396 1.447393 1.447392 1.447392 1.447392 1.447392 1.447392 1.447392 1.447393 1.447395 1.447402 1.447417 1.447452 1.447525 1.447652 1.447809 1.447792 1.446856 1.442866 1.430355 1.396387 1.310344 1.089268 0.419988 -2.087086 -10.588624 -28.949799 -48.005148 -48.835931 -32.116716 -14.879327 -5.256893 -1.486530 -0.344344 -0.066056 -0.010540 -0.001399 -0.000154 -0.000014 -0.000001 -0.000000 -0.000000 -0.000000 -0.000000 -0.000000 -0.000000 -0.000000 -0.000000 -0.000000 -0.000000 -0.000000 -0.000000 -0.000000 -0.000000 -0.000000 -0.000000 -0.000000 -0.000000 -0.000000 -0.000000 -0.000000 -0.000000 -0.000000 -0.000000 -0.000000 -0.000000 -0.000000 -0.000000 -0.000000 -0.000000 -0.000000 -0.000000 -0.000000 -0.000000 -0.000000 -0.000000 -0.000000 -0.000000 -0.000000 -0.000000 -0.000000 -0.000000 -0.000000 20.124637 20.124637 20.124637 24.369966 69.610524 156.455235 183.021606 165.701084 134.309869 101.168080 72.075205 48.563390 31.145292 19.206757 11.619271 7.133144 4.653865 3.367777 2.739082 2.448399 2.320870 2.267628 2.246420 2.238340 2.235390 2.234355 2.234006 2.233893 2.233857 2.233846 2.233843 2.233842 2.233842 2.233842 2.233842 2.233843 2.233846 2.233852 2.233867 2.233904 2.233980 2.234118 2.234308 2.234379 2.233664 2.230222 2.219319 2.190507 2.121564 1.968623 1.655818 0.998787 -1.196824 -10.838489 -37.811036 -71.565246 -72.332969 -44.752222 -19.268708 -6.409375 -1.731899 -0.387835 -0.072498 -0.011333 -0.001480 -0.000161 -0.000014 -0.000001 -0.000000 -0.000000 -0.000000 -0.000000 0.000000 -0.000000 0.000000 0.000000 -0.000000 0.000000 0.000000 -0.000000 0.000000 -0.000000 0.000000 0.000000 -0.000000 0.000000 -0.000000 0.000000 0.000000 -0.000000 0.000000 0.000000 -0.000000 0.000000 -0.000000 0.000000 0.000000 -0.000000 0.000000 -0.000000 0.000000 0.000000 -0.000000 0.000000 0.000000 -0.000000 -0.000000 -0.000000 -0.000000 -0.000000 -0.000000 89.844829 89.844829 89.844829 116.517732 428.605752 1012.170226 1098.059851 982.563358 839.058981 698.262442 551.546908 413.529144 292.091470 195.862941 125.881950 79.191624 50.418862 33.905192 25.036885 20.558665 18.422666 17.456976 17.041845 16.871666 16.804971 16.779925 16.770893 16.767760 16.766713 16.766375 16.766270 16.766238 16.766230 16.766229 16.766236 16.766255 16.766305 16.766424 16.766686 16.767197 16.768020 16.768854 16.768061 16.760339 16.731906 16.652310 16.465124 16.079295 15.349794 14.054862 11.943571 10.300953 16.936189 20.790905 -113.538147 -397.104451 -414.141606 -199.470480 -66.021338 -17.873567 -4.096218 -0.799905 -0.133066 -0.018801 -0.002247 -0.000226 -0.000019 -0.000001 -0.000000 -0.000000 -0.000000 -0.000000 -0.000000 0.000000 -0.000000 -0.000000 0.000000 -0.000000 -0.000000 -0.000000 -0.000000 0.000000 -0.000000 -0.000000 -0.000000 -0.000000 0.000000 -0.000000 -0.000000 0.000000 -0.000000 -0.000000 -0.000000 -0.000000 0.000000 -0.000000 -0.000000 -0.000000 -0.000000 0.000000 -0.000000 -0.000000 0.000000 -0.000000 -0.000000 -0.000000 -0.000000 -0.000000 -0.000000 -0.000000 -0.000000 209.682800 209.682800 209.682800 285.279597 1237.040516 3438.864234 3215.119384 2664.243992 2528.530136 2157.870499 1876.422456 1500.469747 1147.549982 817.068454 544.838322 342.211829 203.230206 115.433312 63.842775 35.444488 20.742630 13.552223 10.217184 8.745800 8.126570 7.877345 7.781202 7.745581 7.732883 7.728519 7.727073 7.726613 7.726479 7.726462 7.726520 7.726691 7.727087 7.727912 7.729405 7.731505 7.732667 7.726737 7.695810 7.596548 7.341084 6.771466 5.638712 3.728281 0.863140 -3.611040 -9.633762 -20.364609 -1.297764 164.986176 -55.695892 -1518.187504 -1703.378618 -518.003590 -145.027856 -35.792819 -7.685424 -1.425273 -0.227101 -0.030956 -0.003594 -0.000354 -0.000029 -0.000002 -0.000000 -0.000000 -0.000000 0.000000 0.000000 0.000000 0.000000 0.000000 0.000000 0.000000 0.000000 0.000000 0.000000 0.000000 0.000000 0.000000 0.000000 0.000000 0.000000 0.000000 0.000000 0.000000 0.000000 0.000000 0.000000 0.000000 0.000000 0.000000 0.000000 0.000000 0.000000 0.000000 0.000000 0.000000 0.000000 0.000000 0.000000 0.000000 -0.000000 -0.000000 -0.000000 -0.000000 -0.000000 -0.000000 -0.000000 -0.000000 -0.000000 -0.000000 -0.000000 -0.000000 -0.000000 -0.000000 -0.000000 -0.000000 -0.000000 -0.000000 -0.000000 -0.000000 -0.000000 -0.000000 -0.000000 -0.000000 -0.000000 -0.000000 -0.000000 -0.000000 -0.000000 -0.000000 -0.000000 -0.000000 0.000000 0.000000 0.000000 -0.000000 -0.000000 -0.000000 0.000000 0.000000 0.000000 -0.000000 -0.000000 -0.000000 0.000000 0.000000 0.000000 -0.000000 -0.000000 -0.000000 -0.000000 -0.000000 -0.000000 -0.000000 -0.000000 -0.000000 -0.000000 -0.000000 -0.000000 -0.000000 -0.000000 -0.000000 -0.000000 -0.000000 -0.000000 -0.000000 -0.000000 -0.000000 -0.000000 -0.000000 -0.000000 -0.000000 -0.000000 -0.000000 -0.000000 -0.000000 -0.000000 -0.000000 -0.000000 -0.000000 -0.000000 -0.000000 -0.000000 -0.000000 -0.000000 -0.000000 -0.000000 -0.000000 -0.000000 -0.000000 -0.000000 -0.000000 -0.000000 -0.000000 -0.000000 -0.000000 -0.000000 -0.000000 -0.000000 -0.000000 -0.000000 -0.000000 -0.000000 -0.000000 -0.000000 -0.000000 -0.000000 -0.000000 -0.000000 -0.000000 -0.000000 -0.000000 -0.000000 -0.000000 -0.000000 -0.000000 -0.000000 -0.000000 -0.000000 -0.000000 -0.000000 -0.000000 -0.000000 -0.000000 -0.000000 -0.000000 -0.000000 -0.000000 -0.000000 -0.000000 -0.000000 -0.000000 -0.000000 -0.000000 -0.000000 -0.000000 -0.000000 -0.000000 -0.000000 -0.000000 -0.000000 -0.000000 -0.000000 -0.000000 -0.000000 -0.000000 -0.000000 -0.000000 -0.000000 -0.000000 -0.000000 -0.000000 -0.000000 -0.000000 -0.000000 -0.000000 -0.000000 -0.000000 -0.000000 -0.000000 -0.000000 -0.000000 -0.000000 -0.000000 -0.000000 -0.000000 -0.000000 -0.000000 -0.000000 -0.000000 -0.000000 -0.000000 -0.000000 -0.000000 -0.000000 -0.000000 -0.000000 -0.000000 -0.000000 -0.000000 -0.000000 -0.000000 -0.000000 -0.000000 -0.000000 -0.000000 -0.000000 -0.000000 -0.000000 -0.000000 -0.000000 -0.000000 -0.000000 -0.000000 -0.000000 -0.000000 -0.000000 -0.000000 -0.000000 -0.000000 -0.000000 -0.000000 -0.000000 -0.000000 -0.000000 -0.000000 -0.000000 -0.000000 -0.000000 -0.000000 -0.000000 -0.000000 -0.000000 -0.000000 -0.000000 -0.000000 -0.000000 -0.000000 -0.000000 -0.000000 -0.000000 -0.000000 -0.000000 -0.000000 -0.000000 -0.000000 -0.000000 -0.000000 -0.000000 -0.000000 -0.000000 -0.000000 -0.000000 -0.000000 -0.000000 -0.000000 -0.000000 -0.000000 -0.000000 -0.000000 -0.000000 -0.000000 -0.000000 -0.000000 -0.000000 -0.000000 -0.000000 -0.000000 -0.000000 -0.000000 -0.000000 -0.000000 -0.000000 -0.000000 0.000000 0.000000 0.000000 -0.000000 -0.000000 -0.000000 0.000000 0.000000 0.000000 -0.000000 -0.000000 -0.000000 0.000000 0.000000 0.000000 -0.000000 -0.000000 -0.000000 0.000000 0.000000 0.000000 -0.000000 -0.000000 -0.000000 0.000000 0.000000 0.000000 -0.000000 -0.000000 -0.000000 0.000000 0.000000 0.000000 -0.000000 -0.000000 -0.000000 0.000000 0.000000 0.000000 -0.000000 -0.000000 -0.000000 0.000000 0.000000 0.000000 -0.000000 -0.000000 -0.000000 0.000000 0.000000 0.000000 -0.000000 -0.000000 -0.000000 0.000000 0.000000 0.000000 -0.000000 -0.000000 -0.000000 0.000000 0.000000 0.000000 -0.000000 -0.000000 -0.000000 0.000000 0.000000 0.000000 -0.000000 -0.000000 -0.000000 0.000000 0.000000 0.000000 -0.000000 -0.000000 -0.000000 0.000000 0.000000 0.000000 -0.000000 -0.000000 -0.000000 0.000000 0.000000 0.000000 -0.000000 -0.000000 -0.000000 0.000000 0.000000 0.000000 -0.000000 -0.000000 -0.000000 0.000000 0.000000 0.000000 -0.000000 -0.000000 -0.000000 0.000000 0.000000 0.000000 -0.000000 -0.000000 -0.000000 0.000000 0.000000 0.000000 -0.000000 -0.000000 -0.000000 0.000000 0.000000 0.000000 -0.000000 -0.000000 -0.000000 0.000000 0.000000 0.000000 -0.000000 -0.000000 -0.000000 0.000000 0.000000 0.000000 -0.000000 -0.000000 -0.000000 0.000000 0.000000 0.000000 -0.000000 -0.000000 -0.000000 0.000000 0.000000 0.000000 -0.000000 -0.000000 -0.000000 0.000000 0.000000 0.000000 -0.000000 -0.000000 -0.000000 0.000000 0.000000 0.000000 -0.000000 -0.000000 -0.000000 0.000000 0.000000 0.000000 -0.000000 -0.000000 -0.000000 0.000000 0.000000 0.000000 -0.000000 -0.000000 -0.000000 0.000000 0.000000 0.000000 -0.000000 -0.000000 -0.000000 0.000000 0.000000 0.000000 -0.000000 -0.000000 -0.000000 0.000000 0.000000 0.000000 -0.000000 -0.000000 -0.000000 0.000000 0.000000 0.000000 -0.000000 -0.000000 -0.000000 0.000000 0.000000 0.000000 -0.000000 -0.000000 -0.000000 0.000000 0.000000 0.000000 -0.000000 -0.000000 -0.000000 0.000000 0.000000 0.000000 -0.000000 -0.000000 -0.000000 0.000000 0.000000 0.000000 -0.000000 -0.000000 -0.000000 0.000000 0.000000 0.000000 -0.000000 -0.000000 -0.000000 0.000000 0.000000 0.000000 -0.000000 -0.000000 -0.000000 0.000000 0.000000 0.000000 -0.000000 -0.000000 -0.000000 0.000000 0.000000 0.000000 -0.000000 -0.000000 -0.000000 0.000000 0.000000 0.000000 -0.000000 -0.000000 -0.000000 0.000000 0.000000 0.000000 -0.000000 -0.000000 -0.000000 0.000000 0.000000 0.000000 -0.000000 -0.000000 -0.000000 0.000000 0.000000 0.000000 -0.000000 -0.000000 -0.000000 0.000000 0.000000 0.000000 -0.000000 -0.000000 -0.000000 0.000000 0.000000 0.000000 -0.000000 -0.000000 -0.000000 0.000000 0.000000 0.000000 -0.000000 -0.000000 -0.000000 0.000000 0.000000 0.000000 -0.000000 -0.000000 -0.000000 0.000000 0.000000 0.000000 -0.000000 -0.000000 -0.000000 0.000000 0.000000 0.000000 -0.000000 -0.000000 -0.000000 0.000000 0.000000 0.000000 -0.000000 -0.000000 -0.000000 0.000000 0.000000 0.000000 -0.000000 -0.000000 -0.000000 0.000000 0.000000 0.000000 -0.000000 -0.000000 -0.000000 0.000000 0.000000 0.000000 -0.000000 -0.000000 -0.000000 0.000000 0.000000 0.000000 -0.000000 -0.000000 -0.000000 0.000000 0.000000 0.000000 -0.000000 -0.000000 -0.000000 0.000000 0.000000 0.000000 -0.000000 -0.000000 -0.000000 0.000000 0.000000 0.000000 -0.000000 -0.000000 -0.000000 0.000000 0.000000 0.000000 -0.000000 -0.000000 -0.000000 0.000000 0.000000 0.000000 -0.000000 -0.000000 -0.000000 0.000000 0.000000 0.000000 -0.000000 -0.000000 -0.000000 0.000000 0.000000 0.000000 -0.000000 -0.000000 -0.000000 0.000000 0.000000 0.000000 -0.000000 -0.000000 -0.000000 0.000000 0.000000 0.000000 -0.000000 -0.000000 -0.000000 0.000000 0.000000 0.000000 -0.000000 -0.000000 -0.000000 0.000000 0.000000 0.000000 -0.000000 -0.000000 -0.000000 0.000000 0.000000 0.000000 -0.000000 -0.000000 -0.000000 0.000000 0.000000 0.000000 -0.000000 -0.000000 -0.000000 0.000000 0.000000 0.000000 -0.000000 -0.000000 -0.000000 0.000000 0.000000 0.000000 -0.000000 -0.000000 -0.000000 0.000000 0.000000 0.000000 -0.000000 -0.000000 -0.000000 0.000000 0.000000 0.000000 -0.000000 -0.000000 -0.000000 0.000000 0.000000 0.000000 -0.000000 -0.000000 -0.000000 0.000000 0.000000 0.000000 -0.000000 -0.000000 -0.000000 0.000000 0.000000 0.000000 -0.000000 -0.000000 -0.000000 0.000000 0.000000 0.000000 -0.000000 -0.000000 -0.000000 0.000000 0.000000 0.000000 -0.000000 -0.000000 -0.000000 0.000000 0.000000 0.000000 -0.000000 -0.000000 -0.000000 0.000000 0.000000 0.000000 -0.000000 -0.000000 -0.000000 0.000000 0.000000 0.000000 -0.000000 -0.000000 -0.000000 0.000000 0.000000 0.000000 -0.000000 -0.000000 -0.000000 0.000000 0.000000 0.000000 -0.000000 -0.000000 -0.000000 0.000000 0.000000 0.000000 -0.000000 -0.000000 -0.000000 0.000000 0.000000 0.000000 -0.000000 -0.000000 -0.000000 0.000000 0.000000 0.000000 -0.000000 -0.000000 -0.000000 0.000000 0.000000 0.000000 -0.000000 -0.000000 -0.000000 0.000000 0.000000 0.000000 -0.000000 -0.000000 -0.000000 0.000000 0.000000 0.000000 -0.000000 -0.000000 -0.000000 0.000000 0.000000 0.000000 -0.000000 -0.000000 -0.000000 0.000000 0.000000 0.000000 -0.000000 -0.000000 -0.000000 0.000000 0.000000 0.000000 -0.000000 -0.000000 -0.000000 0.000000 0.000000 0.000000 -0.000000 -0.000000 -0.000000 0.000000 0.000000 0.000000 -0.000000 -0.000000 -0.000000 0.000000 0.000000 0.000000 -0.000000 -0.000000 -0.000000 0.000000 0.000000 0.000000 -0.000000 -0.000000 -0.000000 0.000000 0.000000 0.000000 -0.000000 -0.000000 -0.000000 0.000000 0.000000 0.000000 -0.000000 -0.000000 -0.000000 0.000000 0.000000 0.000000 -0.000000 -0.000000 -0.000000 0.000000 0.000000 0.000000 -0.000000 -0.000000 -0.000000 0.000000 0.000000 0.000000 -0.000000 -0.000000 -0.000000 0.000000 0.000000 0.000000 -0.000000 -0.000000 -0.000000 0.000000 0.000000 0.000000 -0.000000 -0.000000 -0.000000 0.000000 0.000000 0.000000 -0.000000 -0.000000 -0.000000 0.000000 0.000000 0.000000 -0.000000 -0.000000 -0.000000 0.000000 0.000000 0.000000 -0.000000 -0.000000 -0.000000 0.000000 0.000000 0.000000 -0.000000 -0.000000 -0.000000 0.000000 0.000000 0.000000 -0.000000 -0.000000 -0.000000 0.000000 0.000000 0.000000 -0.000000 -0.000000 -0.000000 0.000000 0.000000 0.000000 -0.000000 -0.000000 -0.000000 0.000000 0.000000 0.000000 -0.000000 -0.000000 -0.000000 0.000000 0.000000 0.000000 -0.000000 -0.000000 -0.000000 0.000000 0.000000 0.000000 -0.000000 -0.000000 -0.000000 0.000000 0.000000 0.000000 -0.000000 -0.000000 -0.000000 0.000000 0.000000 0.000000 -0.000000 -0.000000 -0.000000 0.000000 0.000000 0.000000 -0.000000 -0.000000 -0.000000 0.000000 0.000000 0.000000 -0.000000 -0.000000 -0.000000 0.000000 0.000000 0.000000 -0.000000 -0.000000 -0.000000 0.000000 0.000000 0.000000 -0.000000 -0.000000 -0.000000 0.000000 0.000000 0.000000 -0.000000 -0.000000 -0.000000 -0.000000 -0.000000 -0.000000 -0.000000 -0.000000 -0.000000 -0.000000 -0.000000 -0.000000 -0.000000 -0.000000 -0.000000 -0.000000 -0.000000 -0.000000 -0.000000 -0.000000 -0.000000 -0.000000 -0.000000 -0.000000 -0.000000 -0.000000 -0.000000 -0.000000 -0.000000 -0.000000 0.000000 -0.000000 -0.000000 -0.000000 -0.000000 -0.000000 0.000000 -0.000000 -0.000000 -0.000000 -0.000000 -0.000000 0.000000 -0.000000 -0.000000 -0.000000 -0.000000 -0.000000 0.000000 -0.000000 -0.000000 -0.000000 -0.000000 -0.000000 0.000000 -0.000000 -0.000000 -0.000000 -0.000000 -0.000000 0.000000 -0.000000 -0.000000 -0.000000 -0.000000 -0.000000 0.000000 -0.000000 -0.000000 -0.000000 -0.000000 -0.000000 0.000000 -0.000000 -0.000000 -0.000000 -0.000000 -0.000000 0.000000 -0.000000 -0.000000 -0.000000 -0.000000 -0.000000 0.000000 -0.000000 -0.000000 -0.000000 -0.000000 -0.000000 0.000000 -0.000000 -0.000000 -0.000000 -0.000000 -0.000000 0.000000 -0.000000 -0.000000 -0.000000 -0.000000 -0.000000 0.000000 -0.000000 -0.000000 -0.000000 -0.000000 -0.000000 0.000000 -0.000000 -0.000000 -0.000000 -0.000000 -0.000000 0.000000 -0.000000 -0.000000 -0.000000 -0.000000 -0.000000 0.000000 -0.000000 -0.000000 -0.000000 -0.000000 -0.000000 0.000000 -0.000000 -0.000000 -0.000000 -0.000000 -0.000000 0.000000 -0.000000 -0.000000 -0.000000 -0.000000 -0.000000 0.000000 -0.000000 -0.000000 -0.000000 -0.000000 -0.000000 0.000000 -0.000000 -0.000000 -0.000000 -0.000000 -0.000000 0.000000 -0.000000 -0.000000 -0.000000 -0.000000 -0.000000 0.000000 -0.000000 -0.000000 -0.000000 -0.000000 -0.000000 0.000000 -0.000000 -0.000000 -0.000000 -0.000000 -0.000000 0.000000 -0.000000 -0.000000 -0.000000 -0.000000 -0.000000 0.000000 -0.000000 -0.000000 -0.000000 -0.000000 -0.000000 0.000000 -0.000000 -0.000000 -0.000000 -0.000000 -0.000000 0.000000 -0.000000 -0.000000 -0.000000 -0.000000 -0.000000 0.000000 -0.000000 -0.000000 -0.000000 -0.000000 -0.000000 0.000000 -0.000000 -0.000000 -0.000000 -0.000000 -0.000000 0.000000 -0.000000 -0.000000 -0.000000 -0.000000 -0.000000 0.000000 -0.000000 -0.000000 -0.000000 -0.000000 -0.000000 0.000000 -0.000000 -0.000000 -0.000000 -0.000000 -0.000000 0.000000 -0.000000 -0.000000 -0.000000 -0.000000 -0.000000 0.000000 -0.000000 -0.000000 -0.000000 -0.000000 -0.000000 -0.000000 -0.000000 0.000000 0.000000 0.000000 0.000000 276.010033 276.010033 276.010033 392.275460 2173.890749 8003.553636 10007.722512 8508.077701 7546.313220 6253.476635 5081.290623 3837.642990 2767.907372 1889.952343 1232.506037 777.459588 481.027010 297.453339 186.423855 117.902750 70.716903 31.405559 -4.029587 127.692025 271.273931 -2134.376588 -2620.826213 -827.536673 -237.072809 -60.108058 -13.229996 -2.510340 -0.408409 -0.056740 -0.006704 -0.000671 -0.000057 -0.000004 -0.000000 -0.000000 -0.000000 -0.000000 -0.000000 -0.000000 -0.000000 -0.000000 -0.000000 -0.000000 -0.000000 -0.000000 -0.000000 -0.000000 -0.000000 -0.000000 -0.000000 -0.000000 -0.000000 -0.000000 -0.000000 -0.000000 -0.000000 -0.000000 -0.000000 -0.000000 -0.000000 -0.000000 -0.000000 -0.000000 -0.000000 -0.000000 -0.000000 -0.000000 -0.000000 -0.000000 -0.000000 -0.000000 -0.000000 -0.000000 -0.000000 -0.000000 -0.000000 -0.000000 -0.000000 -0.000000 -0.000000 -0.000000 -0.000000 -0.000000 -0.000000 -0.000000 -0.000000 -0.000000 -0.000000 -0.000000 -0.000000 -0.000000 -0.000000 -0.000000 -0.000000 -0.000000 -0.000000 -0.000000 -0.000000 -0.000000 -0.000000 -0.000000 -0.000000 0.000000 -0.000000 -0.000000 -0.000000 108.914915 108.914915 108.914915 150.217012 678.395334 2191.719560 3008.422447 2677.739553 2211.328212 1730.408561 1296.052382 917.135554 615.740448 393.748581 241.844852 144.702389 86.002556 51.774236 31.587302 18.427165 7.811693 -2.813006 -8.510575 6.840590 -7.849334 -437.557217 -639.529818 -345.461009 -120.101619 -33.366518 -7.778484 -1.537307 -0.258111 -0.036755 -0.004425 -0.000448 -0.000038 -0.000003 -0.000000 -0.000000 -0.000000 -0.000000 -0.000000 -0.000000 -0.000000 -0.000000 -0.000000 -0.000000 0.000000 -0.000000 -0.000000 0.000000 -0.000000 -0.000000 -0.000000 -0.000000 0.000000 -0.000000 -0.000000 -0.000000 -0.000000 0.000000 -0.000000 -0.000000 0.000000 -0.000000 -0.000000 -0.000000 -0.000000 0.000000 -0.000000 -0.000000 -0.000000 -0.000000 0.000000 -0.000000 -0.000000 0.000000 -0.000000 -0.000000 -0.000000 -0.000000 0.000000 -0.000000 -0.000000 -0.000000 -0.000000 0.000000 -0.000000 -0.000000 0.000000 -0.000000 -0.000000 -0.000000 -0.000000 0.000000 -0.000000 -0.000000 -0.000000 -0.000000 0.000000 -0.000000 -0.000000 0.000000 -0.000000 -0.000000 -0.000000 -0.000000 -0.000000 -0.000000 -0.000000 24.794974 24.794974 24.794974 31.889142 116.848972 312.332303 414.680116 392.293241 312.749142 227.536663 155.704856 100.937267 62.323285 36.997507 21.442845 12.455682 7.511318 4.834084 3.267350 2.076063 0.766175 -0.993142 -3.539120 -9.849997 -34.939145 -84.587339 -103.012869 -69.299980 -30.851938 -10.367668 -2.807079 -0.628354 -0.117311 -0.018310 -0.002387 -0.000259 -0.000023 -0.000002 -0.000000 -0.000000 -0.000000 -0.000000 -0.000000 -0.000000 -0.000000 -0.000000 -0.000000 -0.000000 -0.000000 -0.000000 -0.000000 -0.000000 -0.000000 -0.000000 -0.000000 -0.000000 -0.000000 -0.000000 -0.000000 -0.000000 -0.000000 -0.000000 -0.000000 -0.000000 -0.000000 -0.000000 -0.000000 -0.000000 -0.000000 -0.000000 -0.000000 -0.000000 -0.000000 -0.000000 -0.000000 -0.000000 -0.000000 -0.000000 -0.000000 -0.000000 -0.000000 -0.000000 -0.000000 -0.000000 -0.000000 -0.000000 -0.000000 -0.000000 -0.000000 -0.000000 -0.000000 -0.000000 -0.000000 -0.000000 -0.000000 -0.000000 -0.000000 -0.000000 -0.000000 -0.000000 -0.000000 -0.000000 -0.000000 -0.000000 -0.000000 -0.000000 -0.000000 0.000000 0.000000 0.000000 0.000000 14.410067 14.410067 14.410067 18.055475 57.907211 145.239579 191.073215 181.596131 142.327565 99.431117 64.398221 39.402384 23.026916 13.028796 7.294631 4.185903 2.572173 1.735155 1.238482 0.805818 0.213823 -0.842605 -3.154280 -9.237557 -24.014291 -44.920907 -52.007084 -37.766984 -18.790414 -6.988797 -2.051810 -0.488931 -0.095885 -0.015571 -0.002097 -0.000234 -0.000022 -0.000002 -0.000000 -0.000000 -0.000000 -0.000000 -0.000000 -0.000000 -0.000000 -0.000000 -0.000000 -0.000000 -0.000000 -0.000000 -0.000000 -0.000000 -0.000000 -0.000000 -0.000000 -0.000000 -0.000000 -0.000000 -0.000000 -0.000000 -0.000000 -0.000000 -0.000000 -0.000000 -0.000000 -0.000000 -0.000000 -0.000000 -0.000000 -0.000000 -0.000000 -0.000000 -0.000000 -0.000000 -0.000000 -0.000000 -0.000000 -0.000000 -0.000000 -0.000000 -0.000000 -0.000000 -0.000000 -0.000000 -0.000000 -0.000000 -0.000000 -0.000000 -0.000000 -0.000000 -0.000000 -0.000000 -0.000000 -0.000000 -0.000000 -0.000000 -0.000000 -0.000000 -0.000000 -0.000000 -0.000000 -0.000000 -0.000000 -0.000000 -0.000000 0.000000 0.000000 0.000000 0.000000 0.000000 0.000000 14.410067 14.410067 14.410067 18.055475 57.907211 145.239579 191.073215 181.596131 142.327565 99.431117 64.398221 39.402384 23.026916 13.028796 7.294631 4.185903 2.572173 1.735155 1.238482 0.805818 0.213823 -0.842605 -3.154280 -9.237557 -24.014291 -44.920907 -52.007084 -37.766984 -18.790414 -6.988797 -2.051810 -0.488931 -0.095885 -0.015571 -0.002097 -0.000234 -0.000022 -0.000002 -0.000000 -0.000000 -0.000000 -0.000000 -0.000000 -0.000000 -0.000000 -0.000000 -0.000000 -0.000000 -0.000000 -0.000000 -0.000000 -0.000000 -0.000000 -0.000000 -0.000000 -0.000000 -0.000000 -0.000000 -0.000000 -0.000000 -0.000000 -0.000000 -0.000000 -0.000000 -0.000000 -0.000000 -0.000000 -0.000000 -0.000000 -0.000000 -0.000000 -0.000000 -0.000000 -0.000000 -0.000000 -0.000000 -0.000000 -0.000000 -0.000000 -0.000000 -0.000000 -0.000000 -0.000000 -0.000000 -0.000000 -0.000000 -0.000000 -0.000000 -0.000000 -0.000000 -0.000000 -0.000000 -0.000000 -0.000000 -0.000000 -0.000000 -0.000000 -0.000000 -0.000000 -0.000000 -0.000000 -0.000000 -0.000000 -0.000000 -0.000000 0.000000 0.000000 0.000000 0.000000 0.000000 0.000000 14.410067 14.410067 14.410067 18.055475 57.907211 145.239579 191.073215 181.596131 142.327565 99.431117 64.398221 39.402384 23.026916 13.028796 7.294631 4.185903 2.572173 1.735155 1.238482 0.805818 0.213823 -0.842605 -3.154280 -9.237557 -24.014291 -44.920907 -52.007084 -37.766984 -18.790414 -6.988797 -2.051810 -0.488931 -0.095885 -0.015571 -0.002097 -0.000234 -0.000022 -0.000002 -0.000000 -0.000000 -0.000000 -0.000000 -0.000000 -0.000000 -0.000000 -0.000000 -0.000000 -0.000000 -0.000000 -0.000000 -0.000000 -0.000000 -0.000000 -0.000000 -0.000000 -0.000000 -0.000000 -0.000000 -0.000000 -0.000000 -0.000000 -0.000000 -0.000000 -0.000000 -0.000000 -0.000000 -0.000000 -0.000000 -0.000000 -0.000000 -0.000000 -0.000000 -0.000000 -0.000000 -0.000000 -0.000000 -0.000000 -0.000000 -0.000000 -0.000000 -0.000000 -0.000000 -0.000000 -0.000000 -0.000000 -0.000000 -0.000000 -0.000000 -0.000000 -0.000000 -0.000000 -0.000000 -0.000000 -0.000000 -0.000000 -0.000000 -0.000000 -0.000000 -0.000000 -0.000000 -0.000000 -0.000000 -0.000000 -0.000000 -0.000000 0.000000 0.000000 0.000000 0.000000 0.000000 0.000000 228.765814 228.765814 228.765814 313.458665 1444.755001 4229.217624 3903.514587 3201.444354 3090.693456 2653.124654 2347.781557 1907.194619 1491.207204 1091.272250 755.373665 501.552411 324.918361 211.909082 144.737505 107.363517 87.820541 78.172802 73.658543 71.650356 70.798593 70.453239 70.319078 70.269039 70.251088 70.244882 70.242814 70.242151 70.241957 70.241932 70.242013 70.242250 70.242795 70.243913 70.245886 70.248504 70.249372 70.239542 70.193775 70.052346 69.697218 68.920682 67.400005 64.888836 61.197102 55.499673 48.731429 35.457501 49.713964 235.537246 -107.468476 -2079.930702 355.904813 355.904813 355.904813 502.443247 2930.559230 9975.249068 10140.751385 7862.599356 7806.318439 6654.890642 6000.705026 4950.187948 3939.168712 2939.978337 2054.862763 1360.566310 859.559259 527.554504 323.941817 207.281672 144.559577 112.778613 97.538067 90.598385 87.589267 86.343384 85.849651 85.661974 85.593412 85.569299 85.561123 85.558456 85.557640 85.557470 85.557626 85.558173 85.559455 85.562089 85.566756 85.573009 85.575352 85.553147 85.448277 85.122884 84.304478 82.524499 79.029227 73.131291 64.604173 51.849644 41.441773 36.711106 -37.458923 -116.261164 60.515800 1284.543989 500.467372 500.467372 500.467372 701.080947 3719.004645 12081.797996 12654.294202 9741.722055 9677.645142 8006.448548 7334.788870 5982.195331 4787.694826 3599.607535 2526.885268 1680.150468 1060.926794 645.107622 387.187183 237.741249 156.520668 114.949366 94.821331 85.571889 81.526350 79.837542 79.163044 78.904752 78.809727 78.776083 78.764603 78.760833 78.759671 78.759417 78.759610 78.760311 78.761945 78.765265 78.771055 78.778592 78.780718 78.751524 78.619537 78.217334 77.221742 75.091574 70.936277 64.010926 54.322897 38.841731 22.662117 20.811105 8.995653 28.147172 -494.681326 -271.770799 563.627384 563.627384 563.627384 771.056313 3657.182747 10974.045485 10819.447390 8387.759342 8197.066427 6796.361784 6432.056922 5291.055713 4380.023157 3387.811386 2433.961162 1651.652273 1055.990664 642.993989 380.219013 224.553844 138.329550 93.465146 71.423506 61.161890 56.620854 54.705030 53.932453 53.633982 53.523284 53.483796 53.470228 53.465742 53.464346 53.464023 53.464206 53.464928 53.466599 53.469958 53.475726 53.483061 53.484728 53.455487 53.327886 52.947447 52.025015 50.111846 46.483049 40.538902 32.966659 22.250063 10.496128 4.037264 -31.264150 87.623301 204.846848 74.479402 586.766176 586.766176 586.766176 795.318665 3715.511980 11297.762396 11601.279471 9188.747816 8857.208052 7410.638985 6897.455050 5638.300056 4673.393091 3611.636719 2598.542988 1767.196137 1129.858940 685.373411 400.876085 231.285824 136.790566 87.345902 62.922994 51.494734 46.413099 44.259461 43.387261 43.048941 42.922985 42.877892 42.862345 42.857186 42.855569 42.855178 42.855342 42.856061 42.857748 42.861169 42.867180 42.875395 42.879946 42.859232 42.754976 42.432787 41.636225 39.977109 36.848988 31.573207 24.590393 15.236475 4.771100 7.221893 -22.813696 -75.471045 -63.115280 -32.959631 596.697599 596.697599 596.697599 807.468084 3752.799702 11320.979367 11425.271271 8895.948495 8702.336877 7335.988206 6871.647097 5685.692279 4763.186884 3705.982100 2684.115035 1833.598085 1173.756780 709.873606 410.906607 231.608368 131.184347 78.391592 52.202779 39.899795 34.409184 32.074260 31.125613 30.756535 30.618738 30.569273 30.552175 30.546485 30.544691 30.544236 30.544362 30.545031 30.546625 30.549906 30.555847 30.564637 30.572366 30.562790 30.490805 30.251408 29.638082 28.337112 25.899749 21.730692 16.028821 8.907209 -1.452287 -3.279881 7.356707 11.948324 10.620485 7.948755 601.745107 601.745107 601.745107 814.580130 3791.711749 11456.291938 11582.851815 9066.985361 8866.831553 7448.858294 6981.421297 5800.560503 4870.252542 3799.077021 2759.945054 1888.395239 1208.635149 728.864138 418.455081 231.653275 126.707635 71.379222 43.858081 30.896262 25.097641 22.626056 21.619684 21.227329 21.080549 21.027758 21.009476 21.003380 21.001446 21.000934 21.001012 21.001596 21.003019 21.006005 21.011593 21.020512 21.030880 21.032187 20.993193 20.839815 20.421148 19.497786 17.754182 14.732680 10.328151 5.355510 -1.274354 -9.672597 -14.634363 -10.599284 -0.813145 -3.143196 604.607377 604.607377 604.607377 819.067201 3821.387510 11564.221211 11702.666609 9148.672942 8948.236706 7538.414681 7084.650891 5901.715623 4962.787355 3878.293086 2821.634695 1931.364265 1235.349333 743.083822 423.911708 231.482083 123.189203 65.998885 37.504664 24.063138 18.040540 15.469587 14.421209 14.011890 13.858549 13.803324 13.784173 13.777776 13.775737 13.775176 13.775201 13.775679 13.776882 13.779456 13.784429 13.792894 13.804606 13.814017 13.802002 13.721325 13.472505 12.886231 11.747017 9.767901 6.653961 2.821907 -0.790147 -4.183872 -8.279619 -10.523528 -7.158140 -5.485865 606.244487 606.244487 606.244487 821.824369 3844.153045 11658.097900 11812.727257 9229.135031 9036.027579 7629.722931 7174.439215 5984.504378 5037.162064 3939.738246 2867.726305 1