<VTKFile type="PolyData">
<PolyData>
<Piece NumberOfPoints="8632" NumberOfVerts="8632" NumberOfLines="0" NumberOfStrips="0" NumberOfPolys="0">
<PointData>
<DataArray type="Float64" Name="Pressure" format="ascii">
 14347.342567 14347.342567 14347.342567 14359.175321 14482.965484 14749.582594 14930.611695 15062.839591 15168.654232 15187.380311 15071.123110 14814.254199 14421.019600 13925.902282 13370.900751 12823.126659 12280.237311 11668.759748 10992.695177 10324.746785 9696.913344 9092.557722 8493.193826 7919.634701 7357.845208 6761.616048 6140.092166 5534.588403 4952.322612 4396.387063 3877.205528 3298.872068 2585.116387 1939.731685 1549.190389 1315.089730 1068.527662 836.146837 673.563422 502.015774 309.546999 188.188668 118.518335 15.581796 -93.970126 -127.834745 -104.984794 -115.102378 -207.814531 -322.755210 -413.487718 -529.271755 -687.785996 -806.482016 -841.707588 -820.821242 -773.897027 -717.038110 -658.281101 -600.271197 -543.363000 -487.579802 -433.202647 -380.779412 -330.970436 -284.403280 -241.581423 -202.842948 -168.353545 -138.119834 -112.013440 -89.799779 -71.167776 -55.758018 -43.187744 -33.071737 -25.038672 -18.742969 -13.872474 -10.152526 -7.347101 -5.257720 -3.720808 -2.604087 -1.802490 -1.233989 -0.835590 -0.559684 -0.370838 -0.243076 -0.157631 -0.101136 -0.064203 -0.040330 -0.025068 -0.015420 -0.009387 -0.005655 -0.003372 -0.001990 -0.001162 -0.000671 -0.000383 -0.000215 -0.000118 -0.000061 -0.000027 -0.000010 -0.000007 -0.000007 -0.000007 14347.342567 14347.342567 14347.342567 14359.175321 14482.965484 14749.582594 14930.611695 15062.839591 15168.654232 15187.380311 15071.123110 14814.254199 14421.019600 13925.902282 13370.900751 12823.126659 12280.237311 11668.759748 10992.695177 10324.746785 9696.913344 9092.557722 8493.193826 7919.634701 7357.845208 6761.616048 6140.092166 5534.588403 4952.322612 4396.387063 3877.205528 3298.872068 2585.116387 1939.731685 1549.190389 1315.089730 1068.527662 836.146837 673.563422 502.015774 309.546999 188.188668 118.518335 15.581796 -93.970126 -127.834745 -104.984794 -115.102378 -207.814531 -322.755210 -413.487718 -529.271755 -687.785996 -806.482016 -841.707588 -820.821242 -773.897027 -717.038110 -658.281101 -600.271197 -543.363000 -487.579802 -433.202647 -380.779412 -330.970436 -284.403280 -241.581423 -202.842948 -168.353545 -138.119834 -112.013440 -89.799779 -71.167776 -55.758018 -43.187744 -33.071737 -25.038672 -18.742969 -13.872474 -10.152526 -7.347101 -5.257720 -3.720808 -2.604087 -1.802490 -1.233989 -0.835590 -0.559684 -0.370838 -0.243076 -0.157631 -0.101136 -0.064203 -0.040330 -0.025068 -0.015420 -0.009387 -0.005655 -0.003372 -0.001990 -0.001162 -0.000671 -0.000383 -0.000215 -0.000118 -0.000061 -0.000027 -0.000010 -0.000007 -0.000007 -0.000007 14347.342567 14347.342567 14347.342567 14359.175321 14482.965484 14749.582594 14930.611695 15062.839591 15168.654232 15187.380311 15071.123110 14814.254199 14421.019600 13925.902282 13370.900751 12823.126659 12280.237311 11668.759748 10992.695177 10324.746785 9696.913344 9092.557722 8493.193826 7919.634701 7357.845208 6761.616048 6140.092166 5534.588403 4952.322612 4396.387063 3877.205528 3298.872068 2585.116387 1939.731685 1549.190389 1315.089730 1068.527662 836.146837 673.563422 502.015774 309.546999 188.188668 118.518335 15.581796 -93.970126 -127.834745 -104.984794 -115.102378 -207.814531 -322.755210 -413.487718 -529.271755 -687.785996 -806.482016 -841.707588 -820.821242 -773.897027 -717.038110 -658.281101 -600.271197 -543.363000 -487.579802 -433.202647 -380.779412 -330.970436 -284.403280 -241.581423 -202.842948 -168.353545 -138.119834 -112.013440 -89.799779 -71.167776 -55.758018 -43.187744 -33.071737 -25.038672 -18.742969 -13.872474 -10.152526 -7.347101 -5.257720 -3.720808 -2.604087 -1.802490 -1.233989 -0.835590 -0.559684 -0.370838 -0.243076 -0.157631 -0.101136 -0.064203 -0.040330 -0.025068 -0.015420 -0.009387 -0.005655 -0.003372 -0.001990 -0.001162 -0.000671 -0.000383 -0.000215 -0.000118 -0.000061 -0.000027 -0.000010 -0.000007 -0.000007 -0.000007 14385.631556 14385.631556 14385.631556 14399.221435 14548.452410 14858.809528 15022.451330 15148.181152 15296.112568 15358.226469 15267.113529 15019.048645 14608.452799 14086.944805 13491.577154 12958.528851 12463.933404 11835.552004 11100.833098 10384.396526 9719.635856 9084.688251 8456.836632 7890.286492 7346.886402 6731.405078 6087.440096 5474.624159 4883.856422 4303.320702 3810.351110 3265.619191 2467.065743 1763.062708 1435.970311 1277.347742 1024.315375 777.100168 653.676258 490.760862 266.945277 159.414460 125.710632 14.982838 -123.682729 -147.600129 -92.429062 -82.777094 -203.581970 -336.981968 -409.217043 -524.380102 -729.705434 -841.604358 -868.834716 -836.646872 -782.001163 -720.660967 -659.737186 -600.836217 -543.573819 -487.647683 -433.208449 -380.754640 -330.928518 -284.351082 -241.523313 -202.782174 -168.292676 -138.060899 -111.957974 -89.748862 -71.122073 -55.717834 -43.153089 -33.042390 -25.014247 -18.722978 -13.856371 -10.139755 -7.337124 -5.250040 -3.714981 -2.599727 -1.799273 -1.231647 -0.833909 -0.558492 -0.370004 -0.242500 -0.157237 -0.100871 -0.064027 -0.040214 -0.024993 -0.015372 -0.009356 -0.005636 -0.003360 -0.001982 -0.001158 -0.000669 -0.000381 -0.000214 -0.000117 -0.000061 -0.000027 -0.000010 -0.000007 -0.000007 -0.000007 14822.912620 14822.912620 14822.912620 14877.574811 15490.333275 16643.242946 16228.703554 16012.896091 16685.835868 17252.966773 17478.468588 17434.162891 16813.829213 16209.032042 15002.320391 14821.701844 15162.971238 14134.747992 12438.574177 11109.446751 9994.439464 8799.363249 7875.925953 7586.640600 7339.893499 6382.212737 5359.049205 4753.242454 3987.828385 2910.953397 2908.564323 3235.398134 813.016211 -605.058598 84.827528 1211.162708 490.778844 -162.566658 603.898204 558.798736 -474.879236 -244.178408 431.950192 90.750120 -673.431451 -422.484424 92.401180 483.613472 -194.988325 -688.032129 -332.651260 -425.430993 -1328.166965 -1424.837466 -1177.803426 -1014.866463 -871.662474 -756.894513 -674.045045 -606.331414 -545.616931 -488.301220 -433.256552 -380.502628 -330.507100 -283.827667 -240.941173 -202.173651 -167.683417 -137.471159 -111.403097 -89.239619 -70.665095 -55.316149 -42.806763 -32.749190 -24.770298 -18.523358 -13.695627 -10.012313 -7.237599 -5.173453 -3.656889 -2.556280 -1.767225 -1.208327 -0.817164 -0.546627 -0.361704 -0.236767 -0.153328 -0.098237 -0.062275 -0.039062 -0.024245 -0.014891 -0.009051 -0.005445 -0.003241 -0.001910 -0.001113 -0.000642 -0.000365 -0.000203 -0.000106 -0.000051 -0.000022 -0.000008 -0.000006 -0.000006 -0.000006 15496.045816 15496.045816 15496.045816 15632.582447 18028.574905 21834.783692 17217.872630 16385.380041 18735.240268 19288.625635 20385.784681 20113.252349 20094.967533 20409.106982 16577.968232 18815.054182 22321.255058 17811.403382 14751.205407 12565.996565 10085.449236 7077.118737 5952.388744 7491.360121 8564.034443 4982.529593 4029.134829 3985.487641 3387.890566 -1203.472979 686.088032 6270.174828 -2956.075819 -6064.463082 -1351.205273 2375.468782 -269.896414 -2312.743994 1061.864192 1093.302366 -2133.740618 -1033.626829 1323.846409 258.772049 -1824.507815 -944.555735 419.779918 1371.398055 -317.470701 -1392.029266 -179.395857 84.457029 -1767.274036 -2165.824722 -1564.665945 -1256.814164 -1021.580858 -815.883192 -696.081640 -614.742716 -548.770851 -489.366425 -433.435126 -380.262018 -330.043163 -283.235818 -240.278165 -201.479325 -166.988182 -136.798545 -110.770715 -88.659736 -70.145188 -54.859574 -42.413485 -32.416566 -24.493826 -18.297359 -13.513833 -9.868338 -7.125289 -5.087127 -3.591485 -2.507423 -1.731232 -1.182169 -0.798407 -0.533352 -0.352430 -0.230371 -0.148972 -0.095307 -0.060328 -0.037784 -0.023416 -0.014360 -0.008715 -0.005234 -0.003111 -0.001830 -0.001065 -0.000613 -0.000347 -0.000189 -0.000086 -0.000035 -0.000015 -0.000006 -0.000004 -0.000004 -0.000004 -0.000027 -0.000012 -0.000005 -0.000004 -0.000004 -0.000004 -0.000015 -0.000008 -0.000004 -0.000003 -0.000003 -0.000003 -0.000006 -0.000004 -0.000002 -0.000002 -0.000002 -0.000002 -0.000002 -0.000002 -0.000001 -0.000001 -0.000001 -0.000001 -0.000001 -0.000001 -0.000001 -0.000001 -0.000001 -0.000001 -0.000000 -0.000000 -0.000000 -0.000000 -0.000000 -0.000000 -0.000000 -0.000000 -0.000000 -0.000000 -0.000000 -0.000000 -0.000000 -0.000000 -0.000000 -0.000000 -0.000000 -0.000000 -0.000000 -0.000000 -0.000000 -0.000000 -0.000000 -0.000000 -0.000000 -0.000000 -0.000000 -0.000000 -0.000000 -0.000000 -0.000000 -0.000000 -0.000000 -0.000000 -0.000000 -0.000000 -0.000000 -0.000000 -0.000000 -0.000000 -0.000000 -0.000000 -0.000000 -0.000000 -0.000000 -0.000000 -0.000000 -0.000000 -0.000000 -0.000000 -0.000000 -0.000000 -0.000000 -0.000000 -0.000000 -0.000000 -0.000000 -0.000000 -0.000000 -0.000000 -0.000000 -0.000000 -0.000000 -0.000000 -0.000000 -0.000000 -0.000000 -0.000000 -0.000000 -0.000000 -0.000000 -0.000000 -0.000000 -0.000000 -0.000000 -0.000000 -0.000000 -0.000000 -0.000000 -0.000000 -0.000000 -0.000000 -0.000000 -0.000000 -0.000000 -0.000000 -0.000000 -0.000000 -0.000000 -0.000000 -0.000000 -0.000000 -0.000000 -0.000000 -0.000000 -0.000000 -0.000000 -0.000000 -0.000000 -0.000000 -0.000000 -0.000000 -0.000000 -0.000000 -0.000000 -0.000000 -0.000000 -0.000000 -0.000000 -0.000000 -0.000000 -0.000000 -0.000000 -0.000000 -0.000000 -0.000000 -0.000000 -0.000000 -0.000000 -0.000000 -0.000000 -0.000000 -0.000000 -0.000000 -0.000000 -0.000000 -0.000000 -0.000000 -0.000000 -0.000000 -0.000000 -0.000000 -0.000000 -0.000000 -0.000000 -0.000000 -0.000000 -0.000000 -0.000000 -0.000000 -0.000000 -0.000000 -0.000000 -0.000000 -0.000000 -0.000000 -0.000000 -0.000000 -0.000000 -0.000000 -0.000000 -0.000000 -0.000000 -0.000000 -0.000000 -0.000000 -0.000000 -0.000000 -0.000000 -0.000000 -0.000000 -0.000000 -0.000000 -0.000000 -0.000000 -0.000000 -0.000000 -0.000000 -0.000000 -0.000000 -0.000000 -0.000000 -0.000000 -0.000000 -0.000000 -0.000000 -0.000000 -0.000000 -0.000000 -0.000000 -0.000000 -0.000000 -0.000000 -0.000000 -0.000000 -0.000000 -0.000000 -0.000000 -0.000000 -0.000000 -0.000000 -0.000000 -0.000000 -0.000000 -0.000000 -0.000000 -0.000000 -0.000000 -0.000000 -0.000000 -0.000000 -0.000000 -0.000000 -0.000000 -0.000000 -0.000000 -0.000000 -0.000000 -0.000000 -0.000000 -0.000000 -0.000000 -0.000000 -0.000000 -0.000000 -0.000000 -0.000000 -0.000000 -0.000000 -0.000000 -0.000000 -0.000000 -0.000000 -0.000000 -0.000000 -0.000000 -0.000000 -0.000000 -0.000000 -0.000000 -0.000000 -0.000000 -0.000000 -0.000000 -0.000000 -0.000000 -0.000000 -0.000000 -0.000000 -0.000000 -0.000000 -0.000000 -0.000000 -0.000000 -0.000000 -0.000000 -0.000000 -0.000000 -0.000000 -0.000000 -0.000000 -0.000000 -0.000000 -0.000000 -0.000000 -0.000000 -0.000000 -0.000000 -0.000000 -0.000000 -0.000000 0.000000 0.000000 0.000000 -0.000000 -0.000000 -0.000000 0.000000 0.000000 0.000000 -0.000000 -0.000000 -0.000000 0.000000 0.000000 0.000000 -0.000000 -0.000000 -0.000000 0.000000 0.000000 0.000000 -0.000000 -0.000000 -0.000000 0.000000 0.000000 0.000000 -0.000000 -0.000000 -0.000000 0.000000 0.000000 0.000000 -0.000000 -0.000000 -0.000000 0.000000 0.000000 0.000000 -0.000000 -0.000000 -0.000000 0.000000 0.000000 0.000000 -0.000000 -0.000000 -0.000000 0.000000 0.000000 0.000000 -0.000000 -0.000000 -0.000000 0.000000 0.000000 0.000000 -0.000000 -0.000000 -0.000000 0.000000 0.000000 0.000000 -0.000000 -0.000000 -0.000000 0.000000 0.000000 0.000000 -0.000000 -0.000000 -0.000000 0.000000 0.000000 0.000000 -0.000000 -0.000000 -0.000000 0.000000 0.000000 0.000000 -0.000000 -0.000000 -0.000000 0.000000 0.000000 0.000000 -0.000000 -0.000000 -0.000000 0.000000 0.000000 0.000000 -0.000000 -0.000000 -0.000000 0.000000 0.000000 0.000000 -0.000000 -0.000000 -0.000000 0.000000 0.000000 0.000000 -0.000000 -0.000000 -0.000000 0.000000 0.000000 0.000000 -0.000000 -0.000000 -0.000000 0.000000 0.000000 0.000000 -0.000000 -0.000000 -0.000000 0.000000 0.000000 0.000000 -0.000000 -0.000000 -0.000000 0.000000 0.000000 0.000000 -0.000000 -0.000000 -0.000000 0.000000 0.000000 0.000000 -0.000000 -0.000000 -0.000000 0.000000 0.000000 0.000000 -0.000000 -0.000000 -0.000000 0.000000 0.000000 0.000000 -0.000000 -0.000000 -0.000000 0.000000 0.000000 0.000000 -0.000000 -0.000000 -0.000000 0.000000 0.000000 0.000000 -0.000000 -0.000000 -0.000000 0.000000 0.000000 0.000000 -0.000000 -0.000000 -0.000000 0.000000 0.000000 0.000000 -0.000000 -0.000000 -0.000000 0.000000 0.000000 0.000000 -0.000000 -0.000000 -0.000000 0.000000 0.000000 0.000000 -0.000000 -0.000000 -0.000000 0.000000 0.000000 0.000000 -0.000000 -0.000000 -0.000000 0.000000 0.000000 0.000000 -0.000000 -0.000000 -0.000000 0.000000 0.000000 0.000000 -0.000000 -0.000000 -0.000000 0.000000 0.000000 0.000000 -0.000000 -0.000000 -0.000000 0.000000 0.000000 0.000000 -0.000000 -0.000000 -0.000000 0.000000 0.000000 0.000000 -0.000000 -0.000000 -0.000000 0.000000 0.000000 0.000000 -0.000000 -0.000000 -0.000000 0.000000 0.000000 0.000000 -0.000000 -0.000000 -0.000000 0.000000 0.000000 0.000000 -0.000000 -0.000000 -0.000000 0.000000 0.000000 0.000000 -0.000000 -0.000000 -0.000000 0.000000 0.000000 0.000000 -0.000000 -0.000000 -0.000000 0.000000 0.000000 0.000000 -0.000000 -0.000000 -0.000000 0.000000 0.000000 0.000000 -0.000000 -0.000000 -0.000000 0.000000 0.000000 0.000000 -0.000000 -0.000000 -0.000000 0.000000 0.000000 0.000000 -0.000000 -0.000000 -0.000000 0.000000 0.000000 0.000000 -0.000000 -0.000000 -0.000000 0.000000 0.000000 0.000000 -0.000000 -0.000000 -0.000000 0.000000 0.000000 0.000000 -0.000000 -0.000000 -0.000000 0.000000 0.000000 0.000000 -0.000000 -0.000000 -0.000000 0.000000 0.000000 0.000000 -0.000000 -0.000000 -0.000000 0.000000 0.000000 0.000000 -0.000000 -0.000000 -0.000000 0.000000 0.000000 0.000000 -0.000000 -0.000000 -0.000000 0.000000 0.000000 0.000000 -0.000000 -0.000000 -0.000000 0.000000 0.000000 0.000000 -0.000000 -0.000000 -0.000000 0.000000 0.000000 0.000000 -0.000000 -0.000000 -0.000000 0.000000 0.000000 0.000000 -0.000000 -0.000000 -0.000000 0.000000 0.000000 0.000000 -0.000000 -0.000000 -0.000000 0.000000 0.000000 0.000000 -0.000000 -0.000000 -0.000000 0.000000 0.000000 0.000000 -0.000000 -0.000000 -0.000000 0.000000 0.000000 0.000000 -0.000000 -0.000000 -0.000000 0.000000 0.000000 0.000000 -0.000000 -0.000000 -0.000000 0.000000 0.000000 0.000000 -0.000000 -0.000000 -0.000000 0.000000 0.000000 0.000000 -0.000000 -0.000000 -0.000000 0.000000 0.000000 0.000000 -0.000000 -0.000000 -0.000000 0.000000 0.000000 0.000000 -0.000000 -0.000000 -0.000000 0.000000 0.000000 0.000000 -0.000000 -0.000000 -0.000000 0.000000 0.000000 0.000000 -0.000000 -0.000000 -0.000000 0.000000 0.000000 0.000000 -0.000000 -0.000000 -0.000000 0.000000 0.000000 0.000000 -0.000000 -0.000000 -0.000000 0.000000 0.000000 0.000000 -0.000000 -0.000000 -0.000000 0.000000 0.000000 0.000000 -0.000000 -0.000000 -0.000000 0.000000 0.000000 0.000000 -0.000000 -0.000000 -0.000000 0.000000 0.000000 0.000000 -0.000000 -0.000000 -0.000000 0.000000 0.000000 0.000000 -0.000000 -0.000000 -0.000000 0.000000 0.000000 0.000000 -0.000000 -0.000000 -0.000000 0.000000 0.000000 0.000000 -0.000000 -0.000000 -0.000000 0.000000 0.000000 0.000000 -0.000000 -0.000000 -0.000000 0.000000 0.000000 0.000000 -0.000000 -0.000000 -0.000000 0.000000 0.000000 0.000000 -0.000000 -0.000000 -0.000000 0.000000 0.000000 0.000000 -0.000000 -0.000000 -0.000000 0.000000 0.000000 0.000000 -0.000000 -0.000000 -0.000000 0.000000 0.000000 0.000000 -0.000000 -0.000000 -0.000000 0.000000 0.000000 0.000000 -0.000000 -0.000000 -0.000000 0.000000 0.000000 0.000000 -0.000000 -0.000000 -0.000000 0.000000 0.000000 0.000000 -0.000000 -0.000000 -0.000000 0.000000 0.000000 0.000000 -0.000000 -0.000000 -0.000000 0.000000 0.000000 0.000000 -0.000000 -0.000000 -0.000000 0.000000 0.000000 0.000000 -0.000000 -0.000000 -0.000000 0.000000 0.000000 0.000000 -0.000000 -0.000000 -0.000000 0.000000 0.000000 0.000000 -0.000000 -0.000000 -0.000000 0.000000 0.000000 0.000000 -0.000000 -0.000000 -0.000000 0.000000 0.000000 0.000000 -0.000000 -0.000000 -0.000000 0.000000 0.000000 0.000000 -0.000000 -0.000000 -0.000000 0.000000 0.000000 0.000000 -0.000000 -0.000000 -0.000000 0.000000 0.000000 0.000000 -0.000000 -0.000000 -0.000000 0.000000 0.000000 0.000000 -0.000000 -0.000000 -0.000000 0.000000 0.000000 0.000000 -0.000000 -0.000000 -0.000000 0.000000 0.000000 0.000000 -0.000000 -0.000000 -0.000000 0.000000 0.000000 0.000000 -0.000000 -0.000000 -0.000000 0.000000 0.000000 0.000000 -0.000000 -0.000000 -0.000000 0.000000 0.000000 0.000000 -0.000000 -0.000000 -0.000000 0.000000 0.000000 0.000000 -0.000000 -0.000000 -0.000000 0.000000 0.000000 0.000000 -0.000000 -0.000000 -0.000000 0.000000 0.000000 0.000000 -0.000000 -0.000000 -0.000000 0.000000 0.000000 0.000000 -0.000000 -0.000000 -0.000000 0.000000 0.000000 0.000000 -0.000000 -0.000000 -0.000000 0.000000 0.000000 0.000000 -0.000000 -0.000000 -0.000000 0.000000 0.000000 0.000000 -0.000000 -0.000000 -0.000000 0.000000 0.000000 0.000000 -0.000000 -0.000000 -0.000000 0.000000 0.000000 0.000000 -0.000000 -0.000000 -0.000000 0.000000 0.000000 0.000000 -0.000000 -0.000000 -0.000000 -0.000000 -0.000000 -0.000000 -0.000000 -0.000000 -0.000000 -0.000000 -0.000000 -0.000000 -0.000000 -0.000000 -0.000000 -0.000000 -0.000000 -0.000000 -0.000000 -0.000000 -0.000000 -0.000000 -0.000000 -0.000000 -0.000000 -0.000000 -0.000000 -0.000000 -0.000000 -0.000000 0.000000 -0.000000 -0.000000 -0.000000 -0.000000 -0.000000 0.000000 -0.000000 -0.000000 -0.000000 -0.000000 -0.000000 0.000000 -0.000000 -0.000000 -0.000000 -0.000000 -0.000000 0.000000 -0.000000 -0.000000 -0.000000 -0.000000 -0.000000 0.000000 -0.000000 -0.000000 -0.000000 -0.000000 -0.000000 0.000000 -0.000000 -0.000000 -0.000000 -0.000000 -0.000000 0.000000 -0.000000 -0.000000 -0.000000 -0.000000 -0.000000 0.000000 -0.000000 -0.000000 -0.000000 -0.000000 -0.000000 0.000000 -0.000000 -0.000000 -0.000000 -0.000000 -0.000000 0.000000 -0.000000 -0.000000 -0.000000 -0.000000 -0.000000 0.000000 -0.000000 -0.000000 -0.000000 -0.000000 -0.000000 0.000000 -0.000000 -0.000000 -0.000000 -0.000000 -0.000000 0.000000 -0.000000 -0.000000 -0.000000 -0.000000 -0.000000 0.000000 -0.000000 -0.000000 -0.000000 -0.000000 -0.000000 0.000000 -0.000000 -0.000000 -0.000000 -0.000000 -0.000000 0.000000 -0.000000 -0.000000 -0.000000 -0.000000 -0.000000 0.000000 -0.000000 -0.000000 -0.000000 -0.000000 -0.000000 0.000000 -0.000000 -0.000000 -0.000000 -0.000000 -0.000000 0.000000 -0.000000 -0.000000 -0.000000 -0.000000 -0.000000 0.000000 -0.000000 -0.000000 -0.000000 -0.000000 -0.000000 0.000000 -0.000000 -0.000000 -0.000000 -0.000000 -0.000000 0.000000 -0.000000 -0.000000 -0.000000 -0.000000 -0.000000 0.000000 -0.000000 -0.000000 -0.000000 -0.000000 -0.000000 0.000000 -0.000000 -0.000000 -0.000000 -0.000000 -0.000000 0.000000 -0.000000 -0.000000 -0.000000 -0.000000 -0.000000 0.000000 -0.000000 -0.000000 -0.000000 -0.000000 -0.000000 0.000000 -0.000000 -0.000000 -0.000000 -0.000000 -0.000000 0.000000 -0.000000 -0.000000 -0.000000 -0.000000 -0.000000 0.000000 -0.000000 -0.000000 -0.000000 -0.000000 -0.000000 0.000000 -0.000000 -0.000000 -0.000000 -0.000000 -0.000000 0.000000 -0.000000 -0.000000 -0.000000 -0.000000 -0.000000 0.000000 -0.000000 -0.000000 -0.000000 -0.000000 -0.000000 0.000000 -0.000000 -0.000000 -0.000000 -0.000000 -0.000000 0.000000 -0.000000 -0.000000 -0.000000 -0.000000 -0.000000 -0.000000 -0.000000 0.000000 0.000000 0.000000 0.000000 11159.484897 11159.484897 11159.484897 11240.115109 12449.013781 14055.964810 14472.342329 15418.263676 15164.821849 13173.899910 13433.430206 13496.489452 10930.424333 11413.780633 9480.078851 9487.134824 8329.194505 8180.618710 6475.023735 6276.748708 5218.406841 3824.728783 3167.970126 1940.412632 1396.157831 417.410083 558.991806 737.544547 751.710519 682.475924 577.239672 465.932639 364.237937 278.415186 209.317548 155.244691 113.660804 82.054485 58.268618 40.559592 27.548181 18.145615 11.488579 6.891004 3.810026 1.821077 0.598002 -0.104149 -0.464600 -0.610758 -0.630362 -0.581709 -0.501936 -0.413465 -0.328841 -0.254236 -0.191901 -0.141832 -0.102849 -0.073280 -0.051355 -0.035427 -0.024071 -0.016116 -0.010636 -0.006921 -0.004442 -0.002813 -0.001757 -0.001083 -0.000659 -0.000396 -0.000235 -0.000137 -0.000079 -0.000045 -0.000026 -0.000014 -0.000008 -0.000004 -0.000002 -0.000001 -0.000001 -0.000000 -0.000000 -0.000000 -0.000000 -0.000000 -0.000000 -0.000000 -0.000000 -0.000000 -0.000000 -0.000000 -0.000000 -0.000000 -0.000000 -0.000000 -0.000000 -0.000000 -0.000000 -0.000000 -0.000000 -0.000000 -0.000000 -0.000000 -0.000000 0.000000 -0.000000 -0.000000 -0.000000 10786.173131 10786.173131 10786.173131 10798.963728 10968.815815 11485.436410 13601.276385 15348.558533 13330.064615 11365.882163 10613.375536 10375.025594 9338.328538 8673.177156 7921.798764 7908.175770 7197.709952 6462.356729 5281.836457 4821.627454 4207.354065 3412.699449 2793.240498 2014.085146 1391.418634 1085.897164 957.321445 903.623493 824.385630 713.613908 590.997763 472.801462 368.412526 281.411517 211.643066 157.083037 115.109356 83.188513 59.151810 41.243998 28.074800 18.546486 11.789171 7.112108 3.968942 1.932257 0.673387 -0.054894 -0.433869 -0.592743 -0.620762 -0.577443 -0.500870 -0.414172 -0.330405 -0.256095 -0.193736 -0.143478 -0.104240 -0.074405 -0.052235 -0.036095 -0.024567 -0.016476 -0.010892 -0.007100 -0.004565 -0.002896 -0.001812 -0.001119 -0.000682 -0.000410 -0.000244 -0.000143 -0.000083 -0.000047 -0.000027 -0.000015 -0.000008 -0.000004 -0.000002 -0.000001 -0.000001 -0.000000 -0.000000 -0.000000 -0.000000 -0.000000 -0.000000 -0.000000 -0.000000 -0.000000 -0.000000 -0.000000 -0.000000 -0.000000 -0.000000 -0.000000 -0.000000 -0.000000 0.000000 -0.000000 -0.000000 0.000000 -0.000000 -0.000000 -0.000000 -0.000000 -0.000000 -0.000000 -0.000000 10614.236891 10614.236891 10614.236891 10607.765989 10546.239169 10463.688904 10614.048279 10794.359325 10202.295765 9625.209244 9192.703912 8813.877263 8375.611818 7879.119876 7343.530495 6808.010111 6239.882807 5631.565795 4999.920572 4403.939697 3824.124661 3246.988835 2700.762937 2191.154376 1762.735066 1444.812969 1219.364851 1044.888407 889.926070 742.652274 604.295387 479.803419 372.916447 284.770488 214.299397 159.199237 116.781480 84.498409 60.171763 42.034076 28.682610 19.009249 12.136403 7.367812 4.153025 2.061313 0.761125 0.002620 -0.397831 -0.571486 -0.609320 -0.572249 -0.499443 -0.414850 -0.332114 -0.258178 -0.195813 -0.145353 -0.105831 -0.075696 -0.053247 -0.036867 -0.025140 -0.016893 -0.011190 -0.007309 -0.004708 -0.002992 -0.001876 -0.001161 -0.000709 -0.000428 -0.000255 -0.000150 -0.000087 -0.000050 -0.000028 -0.000016 -0.000009 -0.000005 -0.000003 -0.000001 -0.000001 -0.000000 -0.000000 -0.000000 -0.000000 -0.000000 -0.000000 -0.000000 -0.000000 -0.000000 -0.000000 -0.000000 -0.000000 -0.000000 -0.000000 -0.000000 -0.000000 -0.000000 -0.000000 -0.000000 -0.000000 -0.000000 -0.000000 -0.000000 -0.000000 0.000000 0.000000 0.000000 0.000000 10592.760269 10592.760269 10592.760269 10584.209647 10499.805268 10343.562244 10256.846985 10127.450569 9824.205040 9430.417673 9054.219558 8687.644428 8275.233896 7799.677109 7274.989818 6726.741973 6154.974645 5561.490353 4958.462798 4371.449531 3799.466379 3240.849881 2711.042812 2226.292770 1815.321212 1496.308787 1256.111627 1065.690045 899.979440 747.199243 606.429427 480.968760 373.694178 285.364449 214.774532 159.579599 117.082581 84.734408 60.355520 42.176393 28.792084 19.092607 12.198974 7.413919 4.186248 2.084633 0.777003 0.013048 -0.391281 -0.567609 -0.607221 -0.571284 -0.499165 -0.414957 -0.332412 -0.258547 -0.196183 -0.145688 -0.106116 -0.075928 -0.053429 -0.037006 -0.025244 -0.016968 -0.011243 -0.007346 -0.004734 -0.003010 -0.001888 -0.001169 -0.000714 -0.000431 -0.000257 -0.000151 -0.000088 -0.000050 -0.000028 -0.000016 -0.000009 -0.000005 -0.000003 -0.000001 -0.000001 -0.000000 -0.000000 -0.000000 -0.000000 -0.000000 -0.000000 -0.000000 -0.000000 -0.000000 -0.000000 -0.000000 -0.000000 -0.000000 -0.000000 -0.000000 -0.000000 -0.000000 -0.000000 -0.000000 -0.000000 -0.000000 -0.000000 0.000000 0.000000 0.000000 0.000000 0.000000 0.000000 10592.760269 10592.760269 10592.760269 10584.209647 10499.805268 10343.562244 10256.846985 10127.450569 9824.205040 9430.417673 9054.219558 8687.644428 8275.233896 7799.677109 7274.989818 6726.741973 6154.974645 5561.490353 4958.462798 4371.449531 3799.466379 3240.849881 2711.042812 2226.292770 1815.321212 1496.308787 1256.111627 1065.690045 899.979440 747.199243 606.429427 480.968760 373.694178 285.364449 214.774532 159.579599 117.082581 84.734408 60.355520 42.176393 28.792084 19.092607 12.198974 7.413919 4.186248 2.084633 0.777003 0.013048 -0.391281 -0.567609 -0.607221 -0.571284 -0.499165 -0.414957 -0.332412 -0.258547 -0.196183 -0.145688 -0.106116 -0.075928 -0.053429 -0.037006 -0.025244 -0.016968 -0.011243 -0.007346 -0.004734 -0.003010 -0.001888 -0.001169 -0.000714 -0.000431 -0.000257 -0.000151 -0.000088 -0.000050 -0.000028 -0.000016 -0.000009 -0.000005 -0.000003 -0.000001 -0.000001 -0.000000 -0.000000 -0.000000 -0.000000 -0.000000 -0.000000 -0.000000 -0.000000 -0.000000 -0.000000 -0.000000 -0.000000 -0.000000 -0.000000 -0.000000 -0.000000 -0.000000 -0.000000 -0.000000 -0.000000 -0.000000 -0.000000 0.000000 0.000000 0.000000 0.000000 0.000000 0.000000 10592.760269 10592.760269 10592.760269 10584.209647 10499.805268 10343.562244 10256.846985 10127.450569 9824.205040 9430.417673 9054.219558 8687.644428 8275.233896 7799.677109 7274.989818 6726.741973 6154.974645 5561.490353 4958.462798 4371.449531 3799.466379 3240.849881 2711.042812 2226.292770 1815.321212 1496.308787 1256.111627 1065.690045 899.979440 747.199243 606.429427 480.968760 373.694178 285.364449 214.774532 159.579599 117.082581 84.734408 60.355520 42.176393 28.792084 19.092607 12.198974 7.413919 4.186248 2.084633 0.777003 0.013048 -0.391281 -0.567609 -0.607221 -0.571284 -0.499165 -0.414957 -0.332412 -0.258547 -0.196183 -0.145688 -0.106116 -0.075928 -0.053429 -0.037006 -0.025244 -0.016968 -0.011243 -0.007346 -0.004734 -0.003010 -0.001888 -0.001169 -0.000714 -0.000431 -0.000257 -0.000151 -0.000088 -0.000050 -0.000028 -0.000016 -0.000009 -0.000005 -0.000003 -0.000001 -0.000001 -0.000000 -0.000000 -0.000000 -0.000000 -0.000000 -0.000000 -0.000000 -0.000000 -0.000000 -0.000000 -0.000000 -0.000000 -0.000000 -0.000000 -0.000000 -0.000000 -0.000000 -0.000000 -0.000000 -0.000000 -0.000000 -0.000000 0.000000 0.000000 0.000000 0.000000 0.000000 0.000000 15592.706710 15592.706710 15592.706710 15738.009811 18557.395638 22595.536452 16601.795542 16226.041438 18997.062010 19416.017033 20380.373437 20291.891408 20415.138784 21288.383349 16563.856215 19187.883170 23298.009612 17886.298280 15072.638076 12866.306346 10312.397823 6716.962142 5699.522109 7639.426417 8476.026141 4323.044728 4019.230894 3562.668779 3410.520388 -2307.093562 -474.164409 6756.549846 -3760.978487 -7349.966329 -1487.066832 2685.703957 -347.182373 -2671.192566 1187.926082 1202.273981 -2367.172300 -1144.299113 1447.351833 276.477491 -1963.426767 -1005.193859 446.435049 1426.693454 -357.283177 -1457.742030 -158.512981 197.444941 -1705.570565 -2196.305347 -1594.312805 -1277.923618 16259.445056 16259.445056 16259.445056 16496.673342 21004.471959 21209.399293 19828.371545 16065.845786 22741.470351 20305.904166 24053.116021 26021.779705 18205.119041 20098.009908 24170.543844 19790.058784 23422.977303 27977.381019 21077.795994 25458.970203 28013.521791 25440.697844 25026.432964 23813.065938 24246.776761 26315.938698 24645.315655 24843.736925 22335.259362 21876.501958 20035.015147 20693.841977 23473.895363 20969.471112 18924.771928 22810.231914 20493.946621 20688.538999 21122.848421 18262.109620 18152.338361 16436.600478 15767.093385 16178.639385 17222.516072 16988.173178 15037.018041 13599.160497 12614.056227 10334.980065 10146.305877 5646.259945 8132.273697 -66.520020 98.606368 -1589.061143 17373.965809 17373.965809 17373.965809 17713.813383 21649.917444 21416.168044 31651.192439 29318.144216 21055.427405 30476.922634 24944.288829 27620.279445 28527.494738 25387.865701 28106.234418 28581.906356 23425.088009 28031.821164 24587.667994 27590.221150 26195.113864 25119.591905 25369.521232 26349.213027 24159.605069 25688.127431 23976.952766 21176.749589 25135.402045 22137.373187 25912.233125 19642.731425 19018.592736 21141.104836 21943.118581 22686.598506 16558.036547 20028.247445 16410.018447 16601.100048 16312.325607 12478.256962 12701.702895 11793.867158 10845.455992 11370.628405 10809.966497 9512.649023 5397.936358 6203.029894 4709.403072 3144.720159 155.407142 1537.204242 197.170955 234.249432 18572.009435 18572.009435 18572.009435 18722.925099 21280.245520 22999.120681 26573.129172 32411.514709 30258.234154 28229.999979 30673.609285 31476.104170 29938.974148 30138.976145 28860.354346 29636.250417 26053.183680 24581.763585 27801.561267 25103.904039 23793.307213 24918.105802 26076.045563 25263.204721 25434.123236 22821.675510 22203.043053 24211.296596 23699.966223 20947.082462 21043.161749 20294.346530 23409.326742 18320.252113 18013.823499 21734.721910 16205.177257 14059.338508 15900.263025 16816.391643 15411.119999 13738.598644 11910.131911 11944.481623 10808.262876 12638.968698 9838.370885 6950.907743 7156.984379 5714.549544 2447.104594 5474.434031 2529.697162 4720.045665 -866.857657 2281.770240 19861.476798 19861.476798 19861.476798 20018.102596 22205.278419 23887.289954 27858.204225 30902.010159 29628.889946 29378.448530 28546.898443 30544.715803 30262.638161 32399.914104 31071.609133 33164.977255 31142.477373 28917.370098 29399.175708 29857.933114 29429.620720 26365.861043 27847.190089 25583.661906 27912.583577 23527.865975 21664.377406 22289.623981 21361.172752 26254.220821 18532.966893 22820.596552 20581.769610 18479.054618 17756.788464 18782.672681 17442.586334 15341.703422 14935.986363 13911.100227 11878.104239 13133.761108 12173.922661 8916.209160 6769.257381 8076.921712 7304.