<VTKFile type="PolyData">
<PolyData>
<Piece NumberOfPoints="8632" NumberOfVerts="8632" NumberOfLines="0" NumberOfStrips="0" NumberOfPolys="0">
<PointData>
<DataArray type="Float64" Name="Pressure" format="ascii">
 4584.328816 4584.328816 4584.328816 4643.404489 5287.611287 6852.347069 8251.959483 9341.902193 10061.396932 10453.664051 10583.805320 10523.399120 10352.273292 10123.771440 9863.175655 9584.514988 9298.872763 9013.812794 8731.606839 8450.662678 8168.912857 7885.378538 7600.965602 7318.490932 7041.641997 6772.797309 6511.306653 6253.555528 5994.689814 5730.724550 5459.717598 5181.787911 4898.444488 4611.793110 4324.001184 4037.019126 3752.403874 3471.211145 3193.946023 2920.595191 2650.865364 2384.669695 2121.822151 1862.211361 1610.586041 1376.409472 1155.743066 935.327067 730.370348 537.889860 288.988215 -1.283068 -252.553835 -519.175310 -783.284915 -925.718836 -913.235234 -794.275683 -630.867404 -468.050883 -329.403771 -222.421539 -145.278029 -92.292471 -57.202548 -34.631287 -20.477214 -11.814726 -6.643182 -3.635444 -1.933987 -0.999171 -0.500942 -0.243585 -0.114830 -0.052465 -0.023228 -0.009964 -0.004140 -0.001667 -0.000650 -0.000245 -0.000090 -0.000032 -0.000011 -0.000004 -0.000001 -0.000000 -0.000000 -0.000000 -0.000000 -0.000000 -0.000000 -0.000000 -0.000000 -0.000000 -0.000000 -0.000000 -0.000000 -0.000000 -0.000000 -0.000000 -0.000000 -0.000000 -0.000000 -0.000000 -0.000000 -0.000000 -0.000000 -0.000000 -0.000000 4584.328816 4584.328816 4584.328816 4643.404489 5287.611287 6852.347069 8251.959483 9341.902193 10061.396932 10453.664051 10583.805320 10523.399120 10352.273292 10123.771440 9863.175655 9584.514988 9298.872763 9013.812794 8731.606839 8450.662678 8168.912857 7885.378538 7600.965602 7318.490932 7041.641997 6772.797309 6511.306653 6253.555528 5994.689814 5730.724550 5459.717598 5181.787911 4898.444488 4611.793110 4324.001184 4037.019126 3752.403874 3471.211145 3193.946023 2920.595191 2650.865364 2384.669695 2121.822151 1862.211361 1610.586041 1376.409472 1155.743066 935.327067 730.370348 537.889860 288.988215 -1.283068 -252.553835 -519.175310 -783.284915 -925.718836 -913.235234 -794.275683 -630.867404 -468.050883 -329.403771 -222.421539 -145.278029 -92.292471 -57.202548 -34.631287 -20.477214 -11.814726 -6.643182 -3.635444 -1.933987 -0.999171 -0.500942 -0.243585 -0.114830 -0.052465 -0.023228 -0.009964 -0.004140 -0.001667 -0.000650 -0.000245 -0.000090 -0.000032 -0.000011 -0.000004 -0.000001 -0.000000 -0.000000 -0.000000 -0.000000 -0.000000 -0.000000 -0.000000 -0.000000 -0.000000 -0.000000 -0.000000 -0.000000 -0.000000 -0.000000 -0.000000 -0.000000 -0.000000 -0.000000 -0.000000 -0.000000 -0.000000 -0.000000 -0.000000 -0.000000 4584.328816 4584.328816 4584.328816 4643.404489 5287.611287 6852.347069 8251.959483 9341.902193 10061.396932 10453.664051 10583.805320 10523.399120 10352.273292 10123.771440 9863.175655 9584.514988 9298.872763 9013.812794 8731.606839 8450.662678 8168.912857 7885.378538 7600.965602 7318.490932 7041.641997 6772.797309 6511.306653 6253.555528 5994.689814 5730.724550 5459.717598 5181.787911 4898.444488 4611.793110 4324.001184 4037.019126 3752.403874 3471.211145 3193.946023 2920.595191 2650.865364 2384.669695 2121.822151 1862.211361 1610.586041 1376.409472 1155.743066 935.327067 730.370348 537.889860 288.988215 -1.283068 -252.553835 -519.175310 -783.284915 -925.718836 -913.235234 -794.275683 -630.867404 -468.050883 -329.403771 -222.421539 -145.278029 -92.292471 -57.202548 -34.631287 -20.477214 -11.814726 -6.643182 -3.635444 -1.933987 -0.999171 -0.500942 -0.243585 -0.114830 -0.052465 -0.023228 -0.009964 -0.004140 -0.001667 -0.000650 -0.000245 -0.000090 -0.000032 -0.000011 -0.000004 -0.000001 -0.000000 -0.000000 -0.000000 -0.000000 -0.000000 -0.000000 -0.000000 -0.000000 -0.000000 -0.000000 -0.000000 -0.000000 -0.000000 -0.000000 -0.000000 -0.000000 -0.000000 -0.000000 -0.000000 -0.000000 -0.000000 -0.000000 -0.000000 -0.000000 4712.852828 4712.852828 4712.852828 4772.843419 5453.098105 7108.334788 8561.849958 9689.507367 10407.754741 10787.968109 10904.797581 10826.133987 10645.552117 10406.698740 10133.247050 9842.724698 9551.992684 9269.692934 8993.613780 8716.053364 8431.146412 8136.977329 7837.965154 7542.287544 7258.148135 6988.739409 6730.236160 6473.756393 6210.273779 5934.612774 5646.447745 5348.794811 5045.770865 4740.830333 4436.271697 4133.643421 3834.294692 3539.608424 3250.760732 2968.298728 2691.975610 2421.589795 2156.374481 1893.389975 1635.980179 1400.895973 1178.339535 943.400141 728.404511 553.841418 295.654552 -28.739987 -253.548071 -521.853736 -825.754290 -975.297221 -946.979862 -812.720284 -639.729507 -471.938324 -330.894866 -222.858308 -145.306738 -92.196690 -57.092290 -34.541126 -20.412548 -11.771573 -6.615775 -3.618724 -1.924153 -0.993588 -0.497881 -0.241966 -0.114002 -0.052057 -0.023034 -0.009874 -0.004101 -0.001649 -0.000643 -0.000243 -0.000089 -0.000031 -0.000011 -0.000004 -0.000001 -0.000000 -0.000000 -0.000000 -0.000000 -0.000000 -0.000000 -0.000000 -0.000000 0.000000 0.000000 -0.000000 0.000000 -0.000000 0.000000 0.000000 -0.000000 -0.000000 -0.000000 -0.000000 -0.000000 -0.000000 -0.000000 -0.000000 -0.000000 6166.936630 6166.936630 6166.936630 6293.929627 7687.463921 10352.566914 12302.895203 13891.975958 14645.059574 14821.958324 14673.678620 14410.235861 14193.250667 13889.861496 13409.986779 12902.220308 12479.010056 12186.327947 11960.603195 11733.211872 11436.663421 11039.578725 10570.931009 10105.565921 9712.911464 9402.870179 9131.109172 8826.985756 8440.850563 7967.845573 7442.235749 6910.087818 6403.467169 5931.349160 5485.197819 5050.646541 4620.283379 4199.426823 3800.560400 3434.095636 3102.144088 2801.934811 2534.605278 2248.079998 1906.955142 1659.146931 1485.876235 1024.902234 454.813591 976.545517 571.782441 -734.801052 25.290982 -384.065551 -1496.028488 -1582.515849 -1321.741264 -997.001354 -726.942054 -509.813677 -345.286271 -226.985824 -145.494169 -91.203118 -55.980197 -33.639426 -19.768416 -11.342756 -6.343909 -3.453118 -1.826893 -0.938456 -0.467710 -0.226026 -0.105874 -0.048056 -0.021132 -0.009002 -0.003714 -0.001484 -0.000574 -0.000215 -0.000078 -0.000027 -0.000009 -0.000003 -0.000001 -0.000000 -0.000000 -0.000000 -0.000000 -0.000000 -0.000000 -0.000000 0.000000 -0.000000 -0.000000 -0.000000 -0.000000 0.000000 -0.000000 -0.000000 0.000000 -0.000000 -0.000000 -0.000000 -0.000000 -0.000000 -0.000000 -0.000000 -0.000000 8410.865331 8410.865331 8410.865331 8700.684436 10140.097386 14276.782770 18205.107577 20151.358927 19949.745185 19890.880386 20238.216174 19399.570387 19844.473048 19265.569629 18704.244379 17826.030270 17147.995452 16604.623554 16002.273479 15529.679999 15119.852486 14694.432365 14284.025190 13818.184671 13281.318353 12620.989710 11814.753781 10874.464977 9901.585540 9000.094487 8214.817465 7568.435981 7032.444594 6558.290244 6102.663563 5637.024005 5156.704451 4683.458424 4247.777012 3874.839939 3539.828892 3247.291055 3060.740983 2828.620030 1992.907437 2248.579327 1752.970385 1110.064074 -1038.222103 974.646879 742.561320 -2747.002553 646.346571 -340.021542 -2952.974385 -2555.427657 -1934.772114 -1292.321106 -862.413363 -569.490830 -369.093024 -234.930657 -147.101440 -90.668120 -54.972671 -32.729008 -19.090276 -10.882695 -6.049785 -3.273463 -1.721447 -0.878845 -0.435223 -0.208952 -0.097217 -0.043822 -0.019134 -0.008091 -0.003314 -0.001314 -0.000505 -0.000188 -0.000068 -0.000024 -0.000008 -0.000003 -0.000001 -0.000000 -0.000000 -0.000000 -0.000000 -0.000000 -0.000000 0.000000 0.000000 0.000000 0.000000 0.000000 0.000000 0.000000 0.000000 0.000000 0.000000 -0.000000 -0.000000 -0.000000 -0.000000 -0.000000 -0.000000 -0.000000 -0.000000 -0.000000 -0.000000 -0.000000 -0.000000 -0.000000 -0.000000 -0.000000 -0.000000 -0.000000 -0.000000 -0.000000 -0.000000 -0.000000 -0.000000 -0.000000 -0.000000 -0.000000 -0.000000 -0.000000 -0.000000 -0.000000 -0.000000 -0.000000 -0.000000 -0.000000 -0.000000 -0.000000 -0.000000 -0.000000 -0.000000 -0.000000 -0.000000 -0.000000 -0.000000 -0.000000 -0.000000 -0.000000 -0.000000 -0.000000 -0.000000 -0.000000 -0.000000 -0.000000 -0.000000 -0.000000 -0.000000 -0.000000 -0.000000 -0.000000 -0.000000 -0.000000 -0.000000 -0.000000 -0.000000 -0.000000 -0.000000 -0.000000 -0.000000 -0.000000 -0.000000 -0.000000 -0.000000 -0.000000 -0.000000 -0.000000 -0.000000 -0.000000 -0.000000 -0.000000 -0.000000 -0.000000 -0.000000 -0.000000 -0.000000 -0.000000 -0.000000 -0.000000 -0.000000 -0.000000 -0.000000 -0.000000 -0.000000 -0.000000 -0.000000 -0.000000 -0.000000 -0.000000 -0.000000 -0.000000 -0.000000 -0.000000 -0.000000 -0.000000 -0.000000 -0.000000 -0.000000 -0.000000 -0.000000 -0.000000 -0.000000 -0.000000 -0.000000 -0.000000 -0.000000 -0.000000 -0.000000 -0.000000 -0.000000 -0.000000 -0.000000 -0.000000 -0.000000 -0.000000 -0.000000 -0.000000 -0.000000 -0.000000 -0.000000 -0.000000 -0.000000 -0.000000 -0.000000 -0.000000 -0.000000 -0.000000 -0.000000 -0.000000 -0.000000 -0.000000 -0.000000 -0.000000 -0.000000 -0.000000 -0.000000 -0.000000 -0.000000 -0.000000 -0.000000 -0.000000 -0.000000 -0.000000 -0.000000 -0.000000 -0.000000 -0.000000 -0.000000 -0.000000 -0.000000 -0.000000 -0.000000 -0.000000 -0.000000 -0.000000 -0.000000 -0.000000 -0.000000 -0.000000 -0.000000 -0.000000 -0.000000 -0.000000 -0.000000 -0.000000 -0.000000 -0.000000 -0.000000 -0.000000 -0.000000 -0.000000 -0.000000 -0.000000 -0.000000 -0.000000 -0.000000 -0.000000 -0.000000 -0.000000 -0.000000 -0.000000 -0.000000 -0.000000 -0.000000 -0.000000 -0.000000 -0.000000 -0.000000 -0.000000 -0.000000 -0.000000 -0.000000 -0.000000 -0.000000 -0.000000 -0.000000 -0.000000 -0.000000 -0.000000 -0.000000 -0.000000 -0.000000 -0.000000 -0.000000 -0.000000 -0.000000 -0.000000 -0.000000 -0.000000 -0.000000 -0.000000 -0.000000 -0.000000 -0.000000 -0.000000 -0.000000 -0.000000 -0.000000 -0.000000 -0.000000 -0.000000 -0.000000 -0.000000 -0.000000 -0.000000 -0.000000 -0.000000 -0.000000 -0.000000 -0.000000 -0.000000 -0.000000 -0.000000 -0.000000 -0.000000 -0.000000 -0.000000 -0.000000 -0.000000 -0.000000 -0.000000 -0.000000 -0.000000 -0.000000 -0.000000 -0.000000 -0.000000 -0.000000 -0.000000 -0.000000 -0.000000 -0.000000 -0.000000 -0.000000 -0.000000 -0.000000 -0.000000 -0.000000 -0.000000 -0.000000 -0.000000 -0.000000 -0.000000 -0.000000 -0.000000 -0.000000 -0.000000 -0.000000 -0.000000 -0.000000 -0.000000 -0.000000 -0.000000 -0.000000 -0.000000 0.000000 0.000000 0.000000 -0.000000 -0.000000 -0.000000 0.000000 0.000000 0.000000 -0.000000 -0.000000 -0.000000 0.000000 0.000000 0.000000 -0.000000 -0.000000 -0.000000 0.000000 0.000000 0.000000 -0.000000 -0.000000 -0.000000 0.000000 0.000000 0.000000 -0.000000 -0.000000 -0.000000 0.000000 0.000000 0.000000 -0.000000 -0.000000 -0.000000 0.000000 0.000000 0.000000 -0.000000 -0.000000 -0.000000 0.000000 0.000000 0.000000 -0.000000 -0.000000 -0.000000 0.000000 0.000000 0.000000 -0.000000 -0.000000 -0.000000 0.000000 0.000000 0.000000 -0.000000 -0.000000 -0.000000 0.000000 0.000000 0.000000 -0.000000 -0.000000 -0.000000 0.000000 0.000000 0.000000 -0.000000 -0.000000 -0.000000 0.000000 0.000000 0.000000 -0.000000 -0.000000 -0.000000 0.000000 0.000000 0.000000 -0.000000 -0.000000 -0.000000 0.000000 0.000000 0.000000 -0.000000 -0.000000 -0.000000 0.000000 0.000000 0.000000 -0.000000 -0.000000 -0.000000 0.000000 0.000000 0.000000 -0.000000 -0.000000 -0.000000 0.000000 0.000000 0.000000 -0.000000 -0.000000 -0.000000 0.000000 0.000000 0.000000 -0.000000 -0.000000 -0.000000 0.000000 0.000000 0.000000 -0.000000 -0.000000 -0.000000 0.000000 0.000000 0.000000 -0.000000 -0.000000 -0.000000 0.000000 0.000000 0.000000 -0.000000 -0.000000 -0.000000 0.000000 0.000000 0.000000 -0.000000 -0.000000 -0.000000 0.000000 0.000000 0.000000 -0.000000 -0.000000 -0.000000 0.000000 0.000000 0.000000 -0.000000 -0.000000 -0.000000 0.000000 0.000000 0.000000 -0.000000 -0.000000 -0.000000 0.000000 0.000000 0.000000 -0.000000 -0.000000 -0.000000 0.000000 0.000000 0.000000 -0.000000 -0.000000 -0.000000 0.000000 0.000000 0.000000 -0.000000 -0.000000 -0.000000 0.000000 0.000000 0.000000 -0.000000 -0.000000 -0.000000 0.000000 0.000000 0.000000 -0.000000 -0.000000 -0.000000 0.000000 0.000000 0.000000 -0.000000 -0.000000 -0.000000 0.000000 0.000000 0.000000 -0.000000 -0.000000 -0.000000 0.000000 0.000000 0.000000 -0.000000 -0.000000 -0.000000 0.000000 0.000000 0.000000 -0.000000 -0.000000 -0.000000 0.000000 0.000000 0.000000 -0.000000 -0.000000 -0.000000 0.000000 0.000000 0.000000 -0.000000 -0.000000 -0.000000 0.000000 0.000000 0.000000 -0.000000 -0.000000 -0.000000 0.000000 0.000000 0.000000 -0.000000 -0.000000 -0.000000 0.000000 0.000000 0.000000 -0.000000 -0.000000 -0.000000 0.000000 0.000000 0.000000 -0.000000 -0.000000 -0.000000 0.000000 0.000000 0.000000 -0.000000 -0.000000 -0.000000 0.000000 0.000000 0.000000 -0.000000 -0.000000 -0.000000 0.000000 0.000000 0.000000 -0.000000 -0.000000 -0.000000 0.000000 0.000000 0.000000 -0.000000 -0.000000 -0.000000 0.000000 0.000000 0.000000 -0.000000 -0.000000 -0.000000 0.000000 0.000000 0.000000 -0.000000 -0.000000 -0.000000 0.000000 0.000000 0.000000 -0.000000 -0.000000 -0.000000 0.000000 0.000000 0.000000 -0.000000 -0.000000 -0.000000 0.000000 0.000000 0.000000 -0.000000 -0.000000 -0.000000 0.000000 0.000000 0.000000 -0.000000 -0.000000 -0.000000 0.000000 0.000000 0.000000 -0.000000 -0.000000 -0.000000 0.000000 0.000000 0.000000 -0.000000 -0.000000 -0.000000 0.000000 0.000000 0.000000 -0.000000 -0.000000 -0.000000 0.000000 0.000000 0.000000 -0.000000 -0.000000 -0.000000 0.000000 0.000000 0.000000 -0.000000 -0.000000 -0.000000 0.000000 0.000000 0.000000 -0.000000 -0.000000 -0.000000 0.000000 0.000000 0.000000 -0.000000 -0.000000 -0.000000 0.000000 0.000000 0.000000 -0.000000 -0.000000 -0.000000 0.000000 0.000000 0.000000 -0.000000 -0.000000 -0.000000 0.000000 0.000000 0.000000 -0.000000 -0.000000 -0.000000 0.000000 0.000000 0.000000 -0.000000 -0.000000 -0.000000 0.000000 0.000000 0.000000 -0.000000 -0.000000 -0.000000 0.000000 0.000000 0.000000 -0.000000 -0.000000 -0.000000 0.000000 0.000000 0.000000 -0.000000 -0.000000 -0.000000 0.000000 0.000000 0.000000 -0.000000 -0.000000 -0.000000 0.000000 0.000000 0.000000 -0.000000 -0.000000 -0.000000 0.000000 0.000000 0.000000 -0.000000 -0.000000 -0.000000 0.000000 0.000000 0.000000 -0.000000 -0.000000 -0.000000 0.000000 0.000000 0.000000 -0.000000 -0.000000 -0.000000 0.000000 0.000000 0.000000 -0.000000 -0.000000 -0.000000 0.000000 0.000000 0.000000 -0.000000 -0.000000 -0.000000 0.000000 0.000000 0.000000 -0.000000 -0.000000 -0.000000 0.000000 0.000000 0.000000 -0.000000 -0.000000 -0.000000 0.000000 0.000000 0.000000 -0.000000 -0.000000 -0.000000 0.000000 0.000000 0.000000 -0.000000 -0.000000 -0.000000 0.000000 0.000000 0.000000 -0.000000 -0.000000 -0.000000 0.000000 0.000000 0.000000 -0.000000 -0.000000 -0.000000 0.000000 0.000000 0.000000 -0.000000 -0.000000 -0.000000 0.000000 0.000000 0.000000 -0.000000 -0.000000 -0.000000 0.000000 0.000000 0.000000 -0.000000 -0.000000 -0.000000 0.000000 0.000000 0.000000 -0.000000 -0.000000 -0.000000 0.000000 0.000000 0.000000 -0.000000 -0.000000 -0.000000 0.000000 0.000000 0.000000 -0.000000 -0.000000 -0.000000 0.000000 0.000000 0.000000 -0.000000 -0.000000 -0.000000 0.000000 0.000000 0.000000 -0.000000 -0.000000 -0.000000 0.000000 0.000000 0.000000 -0.000000 -0.000000 -0.000000 0.000000 0.000000 0.000000 -0.000000 -0.000000 -0.000000 0.000000 0.000000 0.000000 -0.000000 -0.000000 -0.000000 0.000000 0.000000 0.000000 -0.000000 -0.000000 -0.000000 0.000000 0.000000 0.000000 -0.000000 -0.000000 -0.000000 0.000000 0.000000 0.000000 -0.000000 -0.000000 -0.000000 0.000000 0.000000 0.000000 -0.000000 -0.000000 -0.000000 0.000000 0.000000 0.000000 -0.000000 -0.000000 -0.000000 0.000000 0.000000 0.000000 -0.000000 -0.000000 -0.000000 0.000000 0.000000 0.000000 -0.000000 -0.000000 -0.000000 0.000000 0.000000 0.000000 -0.000000 -0.000000 -0.000000 0.000000 0.000000 0.000000 -0.000000 -0.000000 -0.000000 0.000000 0.000000 0.000000 -0.000000 -0.000000 -0.000000 0.000000 0.000000 0.000000 -0.000000 -0.000000 -0.000000 0.000000 0.000000 0.000000 -0.000000 -0.000000 -0.000000 0.000000 0.000000 0.000000 -0.000000 -0.000000 -0.000000 0.000000 0.000000 0.000000 -0.000000 -0.000000 -0.000000 0.000000 0.000000 0.000000 -0.000000 -0.000000 -0.000000 0.000000 0.000000 0.000000 -0.000000 -0.000000 -0.000000 0.000000 0.000000 0.000000 -0.000000 -0.000000 -0.000000 0.000000 0.000000 0.000000 -0.000000 -0.000000 -0.000000 0.000000 0.000000 0.000000 -0.000000 -0.000000 -0.000000 0.000000 0.000000 0.000000 -0.000000 -0.000000 -0.000000 0.000000 0.000000 0.000000 -0.000000 -0.000000 -0.000000 0.000000 0.000000 0.000000 -0.000000 -0.000000 -0.000000 0.000000 0.000000 0.000000 -0.000000 -0.000000 -0.000000 0.000000 0.000000 0.000000 -0.000000 -0.000000 -0.000000 0.000000 0.000000 0.000000 -0.000000 -0.000000 -0.000000 0.000000 0.000000 0.000000 -0.000000 -0.000000 -0.000000 -0.000000 -0.000000 -0.000000 -0.000000 -0.000000 -0.000000 -0.000000 -0.000000 -0.000000 -0.000000 -0.000000 -0.000000 -0.000000 -0.000000 -0.000000 -0.000000 -0.000000 -0.000000 -0.000000 -0.000000 -0.000000 -0.000000 -0.000000 -0.000000 -0.000000 -0.000000 -0.000000 0.000000 -0.000000 -0.000000 -0.000000 -0.000000 -0.000000 0.000000 -0.000000 -0.000000 -0.000000 -0.000000 -0.000000 0.000000 -0.000000 -0.000000 -0.000000 -0.000000 -0.000000 0.000000 -0.000000 -0.000000 -0.000000 -0.000000 -0.000000 0.000000 -0.000000 -0.000000 -0.000000 -0.000000 -0.000000 0.000000 -0.000000 -0.000000 -0.000000 -0.000000 -0.000000 0.000000 -0.000000 -0.000000 -0.000000 -0.000000 -0.000000 0.000000 -0.000000 -0.000000 -0.000000 -0.000000 -0.000000 0.000000 -0.000000 -0.000000 -0.000000 -0.000000 -0.000000 0.000000 -0.000000 -0.000000 -0.000000 -0.000000 -0.000000 0.000000 -0.000000 -0.000000 -0.000000 -0.000000 -0.000000 0.000000 -0.000000 -0.000000 -0.000000 -0.000000 -0.000000 0.000000 -0.000000 -0.000000 -0.000000 -0.000000 -0.000000 0.000000 -0.000000 -0.000000 -0.000000 -0.000000 -0.000000 0.000000 -0.000000 -0.000000 -0.000000 -0.000000 -0.000000 0.000000 -0.000000 -0.000000 -0.000000 -0.000000 -0.000000 0.000000 -0.000000 -0.000000 -0.000000 -0.000000 -0.000000 0.000000 -0.000000 -0.000000 -0.000000 -0.000000 -0.000000 0.000000 -0.000000 -0.000000 -0.000000 -0.000000 -0.000000 0.000000 -0.000000 -0.000000 -0.000000 -0.000000 -0.000000 0.000000 -0.000000 -0.000000 -0.000000 -0.000000 -0.000000 0.000000 -0.000000 -0.000000 -0.000000 -0.000000 -0.000000 0.000000 -0.000000 -0.000000 -0.000000 -0.000000 -0.000000 0.000000 -0.000000 -0.000000 -0.000000 -0.000000 -0.000000 0.000000 -0.000000 -0.000000 -0.000000 -0.000000 -0.000000 0.000000 -0.000000 -0.000000 -0.000000 -0.000000 -0.000000 0.000000 -0.000000 -0.000000 -0.000000 -0.000000 -0.000000 0.000000 -0.000000 -0.000000 -0.000000 -0.000000 -0.000000 0.000000 -0.000000 -0.000000 -0.000000 -0.000000 -0.000000 0.000000 -0.000000 -0.000000 -0.000000 -0.000000 -0.000000 0.000000 -0.000000 -0.000000 -0.000000 -0.000000 -0.000000 0.000000 -0.000000 -0.000000 -0.000000 -0.000000 -0.000000 0.000000 -0.000000 -0.000000 -0.000000 -0.000000 -0.000000 0.000000 -0.000000 -0.000000 -0.000000 -0.000000 -0.000000 -0.000000 -0.000000 0.000000 0.000000 0.000000 0.000000 7046.054155 7046.054155 7046.054155 6957.572056 5821.409818 4124.670902 5144.347286 1943.804741 1283.446787 1591.022844 167.030104 1886.782668 881.223484 632.431604 461.661339 414.804617 358.460135 551.151352 818.886533 1088.388906 1323.538883 1024.394843 1115.678560 1298.506052 -294.322859 -2587.594209 -1546.906144 -433.480603 -74.492576 9.051741 2.088858 -17.808509 -29.011014 -30.591924 -26.512308 -20.369859 -14.346965 -9.426403 -5.837062 -3.429035 -1.919866 -1.027912 -0.527648 -0.260203 -0.123467 -0.056444 -0.024885 -0.010590 -0.004352 -0.001728 -0.000663 -0.000246 -0.000088 -0.000031 -0.000010 -0.000003 -0.000001 -0.000000 -0.000000 -0.000000 -0.000000 -0.000000 -0.000000 -0.000000 -0.000000 -0.000000 -0.000000 -0.000000 -0.000000 -0.000000 -0.000000 -0.000000 -0.000000 -0.000000 -0.000000 -0.000000 -0.000000 -0.000000 -0.000000 -0.000000 -0.000000 -0.000000 -0.000000 -0.000000 -0.000000 -0.000000 -0.000000 -0.000000 -0.000000 -0.000000 -0.000000 -0.000000 -0.000000 -0.000000 -0.000000 -0.000000 -0.000000 -0.000000 -0.000000 -0.000000 -0.000000 -0.000000 -0.000000 -0.000000 -0.000000 -0.000000 -0.000000 0.000000 -0.000000 -0.000000 -0.000000 5788.745082 5788.745082 5788.745082 5778.656828 5544.544100 5213.405636 5320.808137 3763.540298 3454.588979 3149.107964 3292.839679 4693.964366 4302.579073 3728.414499 3259.440672 2856.518433 2514.757547 2267.503878 2062.824921 1869.306231 1663.722613 1350.563548 1135.560979 878.958087 142.629382 -518.513575 -376.884374 -114.485760 15.994713 29.985429 6.161684 -16.741690 -28.362482 -30.179968 -26.366122 -20.427055 -14.508671 -9.612225 -6.000957 -3.553722 -2.005445 -1.082119 -0.559762 -0.278150 -0.132986 -0.061255 -0.027210 -0.011666 -0.004831 -0.001933 -0.000748 -0.000280 -0.000101 -0.000035 -0.000012 -0.000004 -0.000001 -0.000000 -0.000000 -0.000000 -0.000000 -0.000000 -0.000000 -0.000000 -0.000000 -0.000000 -0.000000 -0.000000 -0.000000 -0.000000 -0.000000 -0.000000 -0.000000 -0.000000 0.000000 -0.000000 -0.000000 0.000000 -0.000000 -0.000000 -0.000000 -0.000000 -0.000000 -0.000000 -0.000000 -0.000000 -0.000000 0.000000 -0.000000 -0.000000 0.000000 -0.000000 -0.000000 -0.000000 -0.000000 -0.000000 -0.000000 -0.000000 -0.000000 -0.000000 0.000000 -0.000000 -0.000000 0.000000 -0.000000 -0.000000 -0.000000 -0.000000 -0.000000 -0.000000 -0.000000 5066.566595 5066.566595 5066.566595 5096.083286 5419.711092 6135.803190 6730.660194 6948.275314 7071.916670 7094.980254 7077.459905 6940.450305 6536.268821 5959.466173 5359.979508 4788.629794 4250.589609 3742.267017 3255.221381 2783.006173 2321.162672 1870.991817 1445.922559 1032.983292 631.949069 330.373747 191.546315 138.410796 96.115059 50.396158 10.813862 -15.188264 -27.415099 -29.610869 -26.155035 -20.473174 -14.685999 -9.823045 -6.189596 -3.698633 -2.105722 -1.146121 -0.597957 -0.299651 -0.144471 -0.067102 -0.030057 -0.012994 -0.005426 -0.002189 -0.000854 -0.000322 -0.000118 -0.000041 -0.000014 -0.000005 -0.000001 -0.000000 -0.000000 -0.000000 -0.000000 -0.000000 -0.000000 -0.000000 -0.000000 -0.000000 -0.000000 -0.000000 -0.000000 -0.000000 -0.000000 -0.000000 -0.000000 -0.000000 -0.000000 -0.000000 -0.000000 -0.000000 -0.000000 -0.000000 -0.000000 -0.000000 -0.000000 -0.000000 -0.000000 -0.000000 -0.000000 -0.000000 -0.000000 -0.000000 -0.000000 -0.000000 -0.000000 -0.000000 -0.000000 -0.000000 -0.000000 -0.000000 -0.000000 -0.000000 -0.000000 -0.000000 -0.000000 -0.000000 -0.000000 -0.000000 -0.000000 0.000000 0.000000 0.000000 0.000000 4966.056444 4966.056444 4966.056444 5001.753272 5380.622120 6249.602675 6906.809677 7285.701110 7487.679817 7559.488642 7494.168689 7262.268356 6822.900531 6247.696491 5639.383701 5048.615166 4486.184242 3948.986196 3430.829468 2927.000911 2435.578310 1959.742132 1508.025034 1085.230898 709.989070 429.748614 265.013526 173.355389 108.220445 53.649159 11.626372 -14.882159 -27.225601 -29.498849 -26.112469 -20.479241 -14.716839 -9.860548 -6.223461 -3.724805 -2.123923 -1.157790 -0.604951 -0.303605 -0.146592 -0.068187 -0.030587 -0.013243 -0.005538 -0.002238 -0.000874 -0.000330 -0.000121 -0.000043 -0.000015 -0.000005 -0.000002 -0.000000 -0.000000 -0.000000 -0.000000 -0.000000 -0.000000 -0.000000 -0.000000 -0.000000 -0.000000 -0.000000 -0.000000 -0.000000 -0.000000 -0.000000 -0.000000 -0.000000 -0.000000 -0.000000 -0.000000 -0.000000 -0.000000 -0.000000 -0.000000 -0.000000 -0.000000 -0.000000 -0.000000 -0.000000 -0.000000 -0.000000 -0.000000 -0.000000 -0.000000 -0.000000 -0.000000 -0.000000 -0.000000 -0.000000 -0.000000 -0.000000 -0.000000 -0.000000 -0.000000 -0.000000 -0.000000 -0.000000 -0.000000 0.000000 0.000000 0.000000 0.000000 0.000000 0.000000 4966.056444 4966.056444 4966.056444 5001.753272 5380.622120 6249.602675 6906.809677 7285.701110 7487.679817 7559.488642 7494.168689 7262.268356 6822.900531 6247.696491 5639.383701 5048.615166 4486.184242 3948.986196 3430.829468 2927.000911 2435.578310 1959.742132 1508.025034 1085.230898 709.989070 429.748614 265.013526 173.355389 108.220445 53.649159 11.626372 -14.882159 -27.225601 -29.498849 -26.112469 -20.479241 -14.716839 -9.860548 -6.223461 -3.724805 -2.123923 -1.157790 -0.604951 -0.303605 -0.146592 -0.068187 -0.030587 -0.013243 -0.005538 -0.002238 -0.000874 -0.000330 -0.000121 -0.000043 -0.000015 -0.000005 -0.000002 -0.000000 -0.000000 -0.000000 -0.000000 -0.000000 -0.000000 -0.000000 -0.000000 -0.000000 -0.000000 -0.000000 -0.000000 -0.000000 -0.000000 -0.000000 -0.000000 -0.000000 -0.000000 -0.000000 -0.000000 -0.000000 -0.000000 -0.000000 -0.000000 -0.000000 -0.000000 -0.000000 -0.000000 -0.000000 -0.000000 -0.000000 -0.000000 -0.000000 -0.000000 -0.000000 -0.000000 -0.000000 -0.000000 -0.000000 -0.000000 -0.000000 -0.000000 -0.000000 -0.000000 -0.000000 -0.000000 -0.000000 -0.000000 0.000000 0.000000 0.000000 0.000000 0.000000 0.000000 4966.056444 4966.056444 4966.056444 5001.753272 5380.622120 6249.602675 6906.809677 7285.701110 7487.679817 7559.488642 7494.168689 7262.268356 6822.900531 6247.696491 5639.383701 5048.615166 4486.184242 3948.986196 3430.829468 2927.000911 2435.578310 1959.742132 1508.025034 1085.230898 709.989070 429.748614 265.013526 173.355389 108.220445 53.649159 11.626372 -14.882159 -27.225601 -29.498849 -26.112469 -20.479241 -14.716839 -9.860548 -6.223461 -3.724805 -2.123923 -1.157790 -0.604951 -0.303605 -0.146592 -0.068187 -0.030587 -0.013243 -0.005538 -0.002238 -0.000874 -0.000330 -0.000121 -0.000043 -0.000015 -0.000005 -0.000002 -0.000000 -0.000000 -0.000000 -0.000000 -0.000000 -0.000000 -0.000000 -0.000000 -0.000000 -0.000000 -0.000000 -0.000000 -0.000000 -0.000000 -0.000000 -0.000000 -0.000000 -0.000000 -0.000000 -0.000000 -0.000000 -0.000000 -0.000000 -0.000000 -0.000000 -0.000000 -0.000000 -0.000000 -0.000000 -0.000000 -0.000000 -0.000000 -0.000000 -0.000000 -0.000000 -0.000000 -0.000000 -0.000000 -0.000000 -0.000000 -0.000000 -0.000000 -0.000000 -0.000000 -0.000000 -0.000000 -0.000000 -0.000000 0.000000 0.000000 0.000000 0.000000 0.000000 0.000000 8729.360967 8729.360967 8729.360967 9013.324237 10136.721899 14580.769662 19539.154637 21602.979299 20515.794294 20257.111257 21023.564488 20131.286666 20586.643787 20005.852898 19503.563777 18657.705765 17921.901933 17301.242191 16545.941600 16001.186993 15540.919198 15094.865627 14748.571477 14323.206406 13744.079717 12987.838608 12034.900911 10924.991852 9803.362231 8821.578956 8050.934473 7436.926381 6934.765477 6512.169505 6102.914280 5677.964307 5242.604054 4815.970419 4409.816493 4044.006614 3694.174615 3356.616610 3106.821032 2842.072097 1881.133596 2259.847594 1434.510408 1089.632595 -1215.047807 428.426273 304.554125 -3113.536644 662.727655 -430.894519 -3177.569560 -2663.471165 10811.362427 10811.362427 10811.362427 10960.804436 11860.016540 20014.384087 24728.670681 30142.252327 29757.517962 25302.937569 28223.432606 27003.482472 27525.770465 26921.290945 25726.054606 24952.960723 25144.142895 25758.746930 25469.837976 24491.878414 23593.267976 22033.642883 20963.153322 20345.038831 19787.489743 19625.603191 19404.109460 18841.428270 17897.357646 16643.922192 15247.960839 13878.676268 12720.308510 11839.708972 11220.059945 10714.205281 10156.328395 9509.653765 8813.690548 8150.029859 7603.010013 7205.558484 6930.531266 6710.283677 6445.275145 6153.204270 5730.787169 5236.412971 4568.525900 4024.604531 3472.660797 2298.746738 1766.914035 3118.221718 625.257066 1370.642955 13802.852883 13802.852883 13802.852883 14374.272739 20398.428320 29497.661107 32758.261564 31457.018884 37342.692158 39035.215477 36975.055460 36356.341982 35543.795276 33825.564401 32509.645970 31459.878902 30617.511035 31533.498585 31295.075348 30593.442098 30531.225420 28863.982763 27813.150585 26926.986484 25869.349858 25433.842420 25021.658822 24509.500932 23740.421016 22641.160354 21306.693483 19833.846488 18437.706004 17204.454869 16127.567486 15168.588876 14250.782839 13320.571968 12386.194732 11520.143741 10800.282852 10246.972944 9809.803424 9416.280085 8946.221141 8478.339777 7835.816270 7359.323272 6521.935193 5765.688059 5270.937690 4116.034500 3623.691378 1163.183410 1802.462325 1413.136624 16223.974853 16223.974853 16223.974853 16834.184606 26566.526941 35265.274901 31260.438941 31155.240079 33096.259320 43156.690144 45148.367361 40163.651297 39686.865473 37968.350035 38717.884952 37686.843699 34984.641648 34834.532617 34455.058291 34118.546086 34701.518246 33138.761124 32234.735458 30879.508848 29286.315221 28374.861138 27637.693741 27038.153849 26188.332631 24942.944410 23316.846818 21448.627146 19649.268923 18079.317016 16806.648129 15798.797234 14914.652346 14035.786659 13128.865542 12248.902105 11479.616159 10868.870115 10366.987940 9932.193313 9396.748681 8877.049859 8126.872033 7470.239933 6661.131000 5697.087416 5211.964646 3681.090220 3222.114696 2851.984319 803.118921 600.730186 17926.472771 17926.472771 17926.472771 18485.766914 26909.768888 35480.589871 34463.651524 27179.223025 37742.701567 44471.282911 46982.829957 43983.852065 41461.578750 39254.228177 38131.454189 39420.845032 36444.505315 36718.190348 36150.249682 35624.589664 35979.222250 34163.120336 33045.138319 31517.207357 30036.549943 29197.741093 28462.683872 27716.507600 26622.868332 25174.205745 23462.016753 21657.557494 20034.814456 18662.899977 17524.712639 16532.730763 15542.313275 14482.147215 13362.766499 12276.401944 11323.323428 10588.022734 10006.236234 9547.232532 9011.961701 8428.645040 7739.365146 6878.589269 6264.360220 5234.257653 4338.153256 3963.856414 2723.685677 1915.397918 1519.940205 549.878398 18975.583345 18975.583345 18975.583345 19232.459287 23978.030129 32645.508068 40263.880509 36484.110703 43186.479537 46133.190067 48219.997805 45419.720312 41917.241404 