<VTKFile type="PolyData">
<PolyData>
<Piece NumberOfPoints="8632" NumberOfVerts="8632" NumberOfLines="0" NumberOfStrips="0" NumberOfPolys="0">
<PointData>
<DataArray type="Float64" Name="Pressure" format="ascii">
 12517.575932 12517.575932 12517.575932 12519.148412 12536.688966 12577.721248 12594.109893 12555.821994 12439.042000 12226.396323 11906.698859 11494.076266 11030.740452 10549.769390 10052.654111 9527.619158 8969.288012 8393.614388 7827.569791 7273.796334 6706.395039 6108.441942 5490.407860 4876.114640 4269.283898 3644.704343 3002.976854 2415.006481 1960.643316 1643.100230 1359.122644 1050.831183 746.884758 416.196052 118.886238 -31.581252 -59.307327 -56.315206 -100.636314 -214.093437 -324.588632 -370.724562 -378.707426 -415.317550 -533.373728 -699.925465 -835.912164 -951.618906 -1106.550294 -1292.164783 -1422.529140 -1469.356694 -1461.513675 -1424.824141 -1373.043738 -1313.152042 -1248.552366 -1181.725668 -1114.819221 -1049.101723 -985.130614 -923.139861 -863.239059 -805.498267 -749.977504 -696.733411 -645.817544 -597.272481 -551.128281 -507.400111 -466.087192 -427.172856 -390.625428 -356.399640 -324.438340 -294.674303 -267.032012 -241.429343 -217.779086 -195.990319 -175.969612 -157.622080 -140.852303 -125.565130 -111.666377 -99.063425 -87.665752 -77.385372 -68.137217 -59.839446 -52.413695 -45.785266 -39.883263 -34.640670 -29.994388 -25.885217 -22.257813 -19.060596 -16.245663 -13.768693 -11.588946 -9.669496 -7.978086 -6.489334 -5.188858 -4.073243 -3.121854 -2.514691 -2.400493 -2.400493 -2.400493 12517.575932 12517.575932 12517.575932 12519.148412 12536.688966 12577.721248 12594.109893 12555.821994 12439.042000 12226.396323 11906.698859 11494.076266 11030.740452 10549.769390 10052.654111 9527.619158 8969.288012 8393.614388 7827.569791 7273.796334 6706.395039 6108.441942 5490.407860 4876.114640 4269.283898 3644.704343 3002.976854 2415.006481 1960.643316 1643.100230 1359.122644 1050.831183 746.884758 416.196052 118.886238 -31.581252 -59.307327 -56.315206 -100.636314 -214.093437 -324.588632 -370.724562 -378.707426 -415.317550 -533.373728 -699.925465 -835.912164 -951.618906 -1106.550294 -1292.164783 -1422.529140 -1469.356694 -1461.513675 -1424.824141 -1373.043738 -1313.152042 -1248.552366 -1181.725668 -1114.819221 -1049.101723 -985.130614 -923.139861 -863.239059 -805.498267 -749.977504 -696.733411 -645.817544 -597.272481 -551.128281 -507.400111 -466.087192 -427.172856 -390.625428 -356.399640 -324.438340 -294.674303 -267.032012 -241.429343 -217.779086 -195.990319 -175.969612 -157.622080 -140.852303 -125.565130 -111.666377 -99.063425 -87.665752 -77.385372 -68.137217 -59.839446 -52.413695 -45.785266 -39.883263 -34.640670 -29.994388 -25.885217 -22.257813 -19.060596 -16.245663 -13.768693 -11.588946 -9.669496 -7.978086 -6.489334 -5.188858 -4.073243 -3.121854 -2.514691 -2.400493 -2.400493 -2.400493 12517.575932 12517.575932 12517.575932 12519.148412 12536.688966 12577.721248 12594.109893 12555.821994 12439.042000 12226.396323 11906.698859 11494.076266 11030.740452 10549.769390 10052.654111 9527.619158 8969.288012 8393.614388 7827.569791 7273.796334 6706.395039 6108.441942 5490.407860 4876.114640 4269.283898 3644.704343 3002.976854 2415.006481 1960.643316 1643.100230 1359.122644 1050.831183 746.884758 416.196052 118.886238 -31.581252 -59.307327 -56.315206 -100.636314 -214.093437 -324.588632 -370.724562 -378.707426 -415.317550 -533.373728 -699.925465 -835.912164 -951.618906 -1106.550294 -1292.164783 -1422.529140 -1469.356694 -1461.513675 -1424.824141 -1373.043738 -1313.152042 -1248.552366 -1181.725668 -1114.819221 -1049.101723 -985.130614 -923.139861 -863.239059 -805.498267 -749.977504 -696.733411 -645.817544 -597.272481 -551.128281 -507.400111 -466.087192 -427.172856 -390.625428 -356.399640 -324.438340 -294.674303 -267.032012 -241.429343 -217.779086 -195.990319 -175.969612 -157.622080 -140.852303 -125.565130 -111.666377 -99.063425 -87.665752 -77.385372 -68.137217 -59.839446 -52.413695 -45.785266 -39.883263 -34.640670 -29.994388 -25.885217 -22.257813 -19.060596 -16.245663 -13.768693 -11.588946 -9.669496 -7.978086 -6.489334 -5.188858 -4.073243 -3.121854 -2.514691 -2.400493 -2.400493 -2.400493 12531.518923 12531.518923 12531.518923 12533.392377 12557.254182 12619.438993 12659.410403 12635.594851 12520.636906 12303.458549 11970.456278 11536.009193 11060.181280 10579.466014 10079.441015 9543.363979 8965.926711 8375.583434 7810.569150 7264.547251 6692.761392 6079.009803 5446.214227 4835.635286 4246.101742 3628.302734 2965.825763 2369.053869 1926.346590 1654.185372 1373.487852 1024.253696 733.744228 378.526861 37.177031 -97.608790 -83.324508 -43.447033 -68.189085 -208.683344 -342.455308 -378.887677 -365.333636 -386.478901 -509.216122 -717.926234 -843.512247 -934.705805 -1082.322759 -1311.728896 -1449.661264 -1488.965049 -1472.450044 -1430.874434 -1376.691193 -1315.634479 -1250.115165 -1182.508147 -1115.138616 -1049.214117 -985.157069 -923.131477 -863.216407 -805.469500 -749.945866 -696.700251 -645.783499 -597.237936 -551.093528 -507.365409 -466.052779 -427.138947 -390.592214 -356.367286 -324.406984 -294.644057 -267.002967 -241.401564 -217.752622 -195.965203 -175.945860 -157.599696 -140.831281 -125.545455 -111.648023 -99.046362 -87.649941 -77.370771 -68.123779 -59.827120 -52.402429 -45.775005 -39.873951 -34.632251 -29.986805 -25.878415 -22.251730 -19.055169 -16.240805 -13.764266 -11.584671 -9.664743 -7.971406 -6.477762 -5.169589 -4.049030 -3.102671 -2.500082 -2.386971 -2.386971 -2.386971 12683.507259 12683.507259 12683.507259 12690.326851 12786.995459 13094.224638 13453.856969 13601.633795 13444.668125 13143.771849 12651.849714 11946.922086 11363.982903 10966.275322 10441.660766 9745.456976 8886.682705 8106.107820 7607.683998 7205.030686 6574.034344 5729.231880 4899.732961 4376.948148 4085.804569 3532.906553 2526.147731 1761.841341 1474.218886 1917.192453 1574.227481 429.395225 829.179257 29.944647 -1200.747559 -923.328549 -364.588356 147.296308 457.834778 -184.767314 -700.472957 -490.287159 -210.166663 110.643830 -161.545937 -1014.737651 -989.328476 -633.616116 -776.577471 -1660.550279 -1844.648018 -1709.144652 -1591.066838 -1496.441350 -1416.829326 -1345.088804 -1269.006170 -1190.581173 -1118.318516 -1050.306030 -985.405863 -923.041096 -862.987342 -805.180890 -749.629167 -696.368557 -645.443044 -596.892499 -550.746030 -507.018435 -465.708697 -426.799911 -390.260134 -356.043810 -324.093495 -294.341681 -266.712592 -241.123863 -217.488079 -195.714131 -175.708431 -157.375953 -140.621157 -125.348788 -111.464570 -98.875806 -87.491907 -77.224832 -67.989464 -59.703928 -52.289829 -45.672453 -39.780888 -34.548116 -29.911032 -25.810435 -22.190958 -19.000951 -16.192298 -13.720106 -11.542130 -9.617593 -7.904733 -6.357467 -4.930700 -3.730531 -2.865846 -2.333756 -2.239160 -2.239160 -2.239160 12900.452944 12900.452944 12900.452944 12907.171611 13037.907910 13561.154381 14739.673078 15258.698662 14397.198315 13845.840010 13344.961106 11872.389615 11662.848270 12021.764694 11185.790281 10227.046305 8508.612001 7397.772826 7495.854080 7488.131108 6646.589689 5269.150584 3690.367557 4006.617257 4501.908153 4366.319261 1139.252776 1329.432683 -498.785729 4035.443815 2363.710184 -3208.149728 1580.017604 -513.017853 -3727.912036 -2172.847544 -726.121572 456.489918 1202.187124 -305.135942 -1348.785232 -683.340199 3.511759 830.300545 226.164239 -1527.522215 -1240.697086 -188.771051 -442.639912 -2233.344819 -2416.190322 -1974.520158 -1731.094967 -1573.669260 -1465.443218 -1387.697046 -1304.348481 -1204.699572 -1123.369361 -1052.078607 -985.894343 -923.019745 -862.759368 -804.865695 -749.274182 -695.993329 -645.056544 -596.499796 -550.350772 -506.623701 -465.317245 -426.414220 -389.882388 -355.675887 -323.736966 -293.997823 -266.382410 -240.808120 -217.187318 -195.428708 -175.438536 -157.121632 -140.382333 -125.125276 -111.256089 -98.681996 -87.312339 -77.059018 -67.836870 -59.563980 -52.161926 -45.555971 -39.675194 -34.452566 -29.824982 -25.733230 -22.121910 -18.939270 -16.136901 -13.669120 -11.491610 -9.558160 -7.812393 -6.165746 -4.417998 -3.144750 -2.495440 -2.106787 -2.035701 -2.035701 -2.035701 -2.901996 -2.342181 -2.047549 -2.007759 -2.007759 -2.007759 -2.359083 -2.043976 -1.846404 -1.819405 -1.819405 -1.819405 -1.741249 -1.634712 -1.547126 -1.534749 -1.534749 -1.534749 -1.357317 -1.317953 -1.284002 -1.278987 -1.278987 -1.278987 -1.083930 -1.070533 -1.059352 -1.057760 -1.057760 -1.057760 -0.875533 -0.872314 -0.870316 -0.870126 -0.870126 -0.870126 -0.710406 -0.711047 -0.712489 -0.712818 -0.712818 -0.712818 -0.576960 -0.578895 -0.581413 -0.581895 -0.581895 -0.581895 -0.468147 -0.470349 -0.473003 -0.473492 -0.473492 -0.473492 -0.379137 -0.381218 -0.383661 -0.384106 -0.384106 -0.384106 -0.306316 -0.308149 -0.310278 -0.310663 -0.310663 -0.310663 -0.246827 -0.248389 -0.250195 -0.250520 -0.250520 -0.250520 -0.198336 -0.199645 -0.201155 -0.201427 -0.201427 -0.201427 -0.158915 -0.160001 -0.161252 -0.161477 -0.161477 -0.161477 -0.126959 -0.127855 -0.128885 -0.129070 -0.129070 -0.129070 -0.101132 -0.101866 -0.102711 -0.102863 -0.102863 -0.102863 -0.080321 -0.080921 -0.081611 -0.081735 -0.081735 -0.081735 -0.063604 -0.064092 -0.064653 -0.064754 -0.064754 -0.064754 -0.050216 -0.050612 -0.051067 -0.051149 -0.051149 -0.051149 -0.039528 -0.039848 -0.040216 -0.040282 -0.040282 -0.040282 -0.031022 -0.031280 -0.031576 -0.031630 -0.031630 -0.031630 -0.024274 -0.024481 -0.024719 -0.024762 -0.024762 -0.024762 -0.018937 -0.019102 -0.019293 -0.019327 -0.019327 -0.019327 -0.014729 -0.014860 -0.015012 -0.015040 -0.015040 -0.015040 -0.011421 -0.011526 -0.011647 -0.011668 -0.011668 -0.011668 -0.008830 -0.008913 -0.009008 -0.009026 -0.009026 -0.009026 -0.006806 -0.006871 -0.006947 -0.006960 -0.006960 -0.006960 -0.005230 -0.005281 -0.005341 -0.005352 -0.005352 -0.005352 -0.004007 -0.004047 -0.004094 -0.004102 -0.004102 -0.004102 -0.003060 -0.003092 -0.003128 -0.003135 -0.003135 -0.003135 -0.002330 -0.002355 -0.002384 -0.002389 -0.002389 -0.002389 -0.001769 -0.001788 -0.001810 -0.001814 -0.001814 -0.001814 -0.001339 -0.001354 -0.001371 -0.001374 -0.001374 -0.001374 -0.001010 -0.001022 -0.001035 -0.001037 -0.001037 -0.001037 -0.000760 -0.000769 -0.000779 -0.000781 -0.000781 -0.000781 -0.000570 -0.000577 -0.000585 -0.000586 -0.000586 -0.000586 -0.000426 -0.000431 -0.000437 -0.000438 -0.000438 -0.000438 -0.000318 -0.000322 -0.000326 -0.000327 -0.000327 -0.000327 -0.000236 -0.000239 -0.000243 -0.000243 -0.000243 -0.000243 -0.000175 -0.000177 -0.000180 -0.000180 -0.000180 -0.000180 -0.000129 -0.000131 -0.000133 -0.000133 -0.000133 -0.000133 -0.000095 -0.000096 -0.000098 -0.000098 -0.000098 -0.000098 -0.000070 -0.000071 -0.000072 -0.000072 -0.000072 -0.000072 -0.000051 -0.000052 -0.000053 -0.000053 -0.000053 -0.000053 -0.000037 -0.000038 -0.000038 -0.000039 -0.000039 -0.000039 -0.000027 -0.000028 -0.000028 -0.000028 -0.000028 -0.000028 -0.000020 -0.000020 -0.000020 -0.000020 -0.000020 -0.000020 -0.000014 -0.000014 -0.000015 -0.000015 -0.000015 -0.000015 -0.000010 -0.000010 -0.000011 -0.000011 -0.000011 -0.000011 -0.000007 -0.000007 -0.000008 -0.000008 -0.000008 -0.000008 -0.000005 -0.000005 -0.000005 -0.000005 -0.000005 -0.000005 -0.000004 -0.000004 -0.000004 -0.000004 -0.000004 -0.000004 -0.000003 -0.000003 -0.000003 -0.000003 -0.000003 -0.000003 -0.000002 -0.000002 -0.000002 -0.000002 -0.000002 -0.000002 -0.000001 -0.000001 -0.000001 -0.000001 -0.000001 -0.000001 -0.000001 -0.000001 -0.000001 -0.000001 -0.000001 -0.000001 -0.000001 -0.000001 -0.000001 -0.000001 -0.000001 -0.000001 -0.000000 -0.000000 -0.000000 -0.000000 -0.000000 -0.000000 -0.000000 -0.000000 -0.000000 -0.000000 -0.000000 -0.000000 -0.000000 -0.000000 -0.000000 -0.000000 -0.000000 -0.000000 -0.000000 -0.000000 -0.000000 -0.000000 -0.000000 -0.000000 -0.000000 -0.000000 -0.000000 -0.000000 -0.000000 -0.000000 -0.000000 -0.000000 -0.000000 -0.000000 -0.000000 -0.000000 -0.000000 -0.000000 -0.000000 -0.000000 -0.000000 -0.000000 -0.000000 -0.000000 -0.000000 -0.000000 -0.000000 -0.000000 -0.000000 -0.000000 -0.000000 -0.000000 -0.000000 -0.000000 -0.000000 -0.000000 -0.000000 -0.000000 -0.000000 -0.000000 -0.000000 -0.000000 -0.000000 -0.000000 -0.000000 -0.000000 -0.000000 -0.000000 -0.000000 -0.000000 -0.000000 -0.000000 -0.000000 -0.000000 -0.000000 -0.000000 -0.000000 -0.000000 -0.000000 -0.000000 -0.000000 -0.000000 -0.000000 -0.000000 -0.000000 -0.000000 -0.000000 -0.000000 -0.000000 -0.000000 -0.000000 -0.000000 -0.000000 -0.000000 -0.000000 -0.000000 -0.000000 -0.000000 -0.000000 -0.000000 -0.000000 -0.000000 -0.000000 -0.000000 -0.000000 0.000000 0.000000 0.000000 -0.000000 -0.000000 -0.000000 0.000000 0.000000 0.000000 -0.000000 -0.000000 -0.000000 0.000000 0.000000 0.000000 -0.000000 -0.000000 -0.000000 0.000000 0.000000 0.000000 -0.000000 -0.000000 -0.000000 0.000000 0.000000 0.000000 -0.000000 -0.000000 -0.000000 0.000000 0.000000 0.000000 -0.000000 -0.000000 -0.000000 0.000000 0.000000 0.000000 -0.000000 -0.000000 -0.000000 0.000000 0.000000 0.000000 -0.000000 -0.000000 -0.000000 0.000000 0.000000 0.000000 -0.000000 -0.000000 -0.000000 0.000000 0.000000 0.000000 -0.000000 -0.000000 -0.000000 0.000000 0.000000 0.000000 -0.000000 -0.000000 -0.000000 0.000000 0.000000 0.000000 -0.000000 -0.000000 -0.000000 0.000000 0.000000 0.000000 -0.000000 -0.000000 -0.000000 0.000000 0.000000 0.000000 -0.000000 -0.000000 -0.000000 0.000000 0.000000 0.000000 -0.000000 -0.000000 -0.000000 0.000000 0.000000 0.000000 -0.000000 -0.000000 -0.000000 0.000000 0.000000 0.000000 -0.000000 -0.000000 -0.000000 0.000000 0.000000 0.000000 -0.000000 -0.000000 -0.000000 0.000000 0.000000 0.000000 -0.000000 -0.000000 -0.000000 0.000000 0.000000 0.000000 -0.000000 -0.000000 -0.000000 0.000000 0.000000 0.000000 -0.000000 -0.000000 -0.000000 0.000000 0.000000 0.000000 -0.000000 -0.000000 -0.000000 0.000000 0.000000 0.000000 -0.000000 -0.000000 -0.000000 0.000000 0.000000 0.000000 -0.000000 -0.000000 -0.000000 0.000000 0.000000 0.000000 -0.000000 -0.000000 -0.000000 0.000000 0.000000 0.000000 -0.000000 -0.000000 -0.000000 0.000000 0.000000 0.000000 -0.000000 -0.000000 -0.000000 0.000000 0.000000 0.000000 -0.000000 -0.000000 -0.000000 0.000000 0.000000 0.000000 -0.000000 -0.000000 -0.000000 0.000000 0.000000 0.000000 -0.000000 -0.000000 -0.000000 0.000000 0.000000 0.000000 -0.000000 -0.000000 -0.000000 0.000000 0.000000 0.000000 -0.000000 -0.000000 -0.000000 0.000000 0.000000 0.000000 -0.000000 -0.000000 -0.000000 0.000000 0.000000 0.000000 -0.000000 -0.000000 -0.000000 0.000000 0.000000 0.000000 -0.000000 -0.000000 -0.000000 0.000000 0.000000 0.000000 -0.000000 -0.000000 -0.000000 0.000000 0.000000 0.000000 -0.000000 -0.000000 -0.000000 0.000000 0.000000 0.000000 -0.000000 -0.000000 -0.000000 0.000000 0.000000 0.000000 -0.000000 -0.000000 -0.000000 0.000000 0.000000 0.000000 -0.000000 -0.000000 -0.000000 0.000000 0.000000 0.000000 -0.000000 -0.000000 -0.000000 0.000000 0.000000 0.000000 -0.000000 -0.000000 -0.000000 0.000000 0.000000 0.000000 -0.000000 -0.000000 -0.000000 0.000000 0.000000 0.000000 -0.000000 -0.000000 -0.000000 0.000000 0.000000 0.000000 -0.000000 -0.000000 -0.000000 0.000000 0.000000 0.000000 -0.000000 -0.000000 -0.000000 0.000000 0.000000 0.000000 -0.000000 -0.000000 -0.000000 0.000000 0.000000 0.000000 -0.000000 -0.000000 -0.000000 0.000000 0.000000 0.000000 -0.000000 -0.000000 -0.000000 0.000000 0.000000 0.000000 -0.000000 -0.000000 -0.000000 0.000000 0.000000 0.000000 -0.000000 -0.000000 -0.000000 0.000000 0.000000 0.000000 -0.000000 -0.000000 -0.000000 0.000000 0.000000 0.000000 -0.000000 -0.000000 -0.000000 0.000000 0.000000 0.000000 -0.000000 -0.000000 -0.000000 0.000000 0.000000 0.000000 -0.000000 -0.000000 -0.000000 0.000000 0.000000 0.000000 -0.000000 -0.000000 -0.000000 0.000000 0.000000 0.000000 -0.000000 -0.000000 -0.000000 0.000000 0.000000 0.000000 -0.000000 -0.000000 -0.000000 0.000000 0.000000 0.000000 -0.000000 -0.000000 -0.000000 0.000000 0.000000 0.000000 -0.000000 -0.000000 -0.000000 0.000000 0.000000 0.000000 -0.000000 -0.000000 -0.000000 0.000000 0.000000 0.000000 -0.000000 -0.000000 -0.000000 0.000000 0.000000 0.000000 -0.000000 -0.000000 -0.000000 0.000000 0.000000 0.000000 -0.000000 -0.000000 -0.000000 0.000000 0.000000 0.000000 0.000000 -0.000000 -0.000000 0.000000 0.000000 0.000000 0.000000 -0.000000 0.000000 0.000000 0.000000 0.000000 0.000000 0.000000 0.000000 0.000000 0.000000 0.000000 0.000000 0.000000 0.000000 0.000000 0.000000 0.000000 0.000000 0.000000 0.000000 0.000000 0.000000 0.000000 0.000000 0.000000 0.000000 0.000000 0.000000 0.000000 0.000000 0.000000 0.000000 0.000000 0.000000 0.000000 0.000000 0.000000 0.000000 0.000000 0.000000 0.000000 0.000000 0.000000 0.000000 0.000000 0.000000 0.000000 0.000001 0.000001 0.000001 0.000001 0.000001 0.000001 0.000002 0.000002 0.000002 0.000002 0.000002 0.000002 0.000004 0.000004 0.000005 0.000005 0.000005 0.000005 0.000009 0.000010 0.000011 0.000011 0.000011 0.000011 0.000020 0.000022 0.000024 0.000024 0.000024 0.000024 0.000043 0.000047 0.000051 0.000052 0.000052 0.000052 0.000092 0.000099 0.000107 0.000109 0.000109 0.000109 0.000190 0.000204 0.000220 0.000223 0.000223 0.000223 0.000386 0.000412 0.000443 0.000448 0.000448 0.000448 0.000767 0.000814 0.000872 0.000882 0.000882 0.000882 0.001489 0.001575 0.001679 0.001698 0.001698 0.001698 0.002827 0.002980 0.003162 0.003196 0.003196 0.003196 0.005250 0.005514 0.005825 0.005882 0.005882 0.005882 0.009530 0.009971 0.010491 0.010586 0.010586 0.010586 0.016905 0.017623 0.018467 0.018620 0.018620 0.018620 0.029298 0.030434 0.031764 0.032006 0.032006 0.032006 0.049593 0.051338 0.053372 0.053740 0.053740 0.053740 0.081966 0.084560 0.087573 0.088118 0.088118 0.088118 0.132218 0.135948 0.140264 0.141043 0.141043 0.141043 0.208068 0.213240 0.219205 0.220279 0.220279 0.220279 0.319266 0.326162 0.334087 0.335510 0.335510 0.335510 0.477392 0.486191 0.496264 0.498070 0.498070 0.498070 0.695127 0.705798 0.717964 0.720139 0.720139 0.720139 0.984802 0.996969 1.010776 1.013238 1.013238 1.013238 1.356051 1.368849 1.383287 1.385852 1.385852 1.385852 1.812508 1.824452 1.837809 1.840170 1.840170 1.840170 2.347667 2.356585 2.366377 2.368090 2.368090 2.368090 2.940327 2.943393 2.946414 2.946905 2.946905 2.946905 3.550322 3.544249 3.536787 3.535397 3.535397 3.535397 4.115568 4.096979 4.075249 4.071308 4.071308 4.071308 4.551641 4.517626 4.478398 4.471337 4.471337 4.471337 4.755078 4.703886 4.645262 4.634752 4.634752 4.634752 4.611259 4.543024 4.465248 4.451343 4.451343 4.451343 4.007069 3.924421 3.830555 3.813807 3.813807 3.813807 2.847529 2.755925 2.652200 2.633726 2.633726 2.633726 1.074510 0.982120 0.877798 0.859246 0.859246 0.859246 -1.315417 -1.398355 -1.491731 -1.508307 -1.508307 -1.508307 -4.257522 -4.319891 -4.389826 -4.402212 -4.402212 -4.402212 -7.613357 -7.644747 -7.679582 -7.685713 -7.685713 -7.685713 -11.175705 -11.168155 -11.159006 -11.157314 -11.157314 -11.157314 -14.684974 -14.634539 -14.577042 -14.566760 -14.566760 -14.566760 -17.855814 -17.763611 -17.659075 -17.640441 -17.640441 -17.640441 -20.410451 -20.282925 -20.138614 -20.112917 -20.112917 -20.112917 -22.113463 -21.961773 -21.790199 -21.759655 -21.759655 -21.759655 -22.801925 -22.640578 -22.457942 -22.425415 -22.425415 -22.425415 -22.405267 -22.250396 -22.074604 -22.043246 -22.043246 -22.043246 -20.950766 -20.818788 -20.667776 -20.640716 -20.640716 -20.640716 -18.552887 -18.460762 -18.352313 -18.332577 -18.332577 -18.332577 -15.386593 -15.356095 -15.311045 -15.301977 -15.301977 -15.301977 -11.644362 -11.716814 -11.768586 -11.774959 -11.774959 -11.774959 -7.467126 -7.754129 -7.966725 -7.995240 -7.995240 -7.995240 -2.801141 -3.706552 -4.133752 -4.189561 -4.189561 -4.189561 21992.934693 21992.934693 21992.934693 22136.914261 23681.970205 23231.114877 20814.669097 23467.730288 24619.558634 25068.635896 27092.874833 26128.221415 24496.610536 23551.439719 22376.857111 23145.547273 23525.554321 21506.101161 19797.261258 19437.502055 18946.036415 17820.936947 14825.328947 15887.376868 18439.439224 19976.825078 19720.123992 25242.388887 18981.668668 18493.102815 11807.759442 9293.664383 15164.968919 13929.541701 8675.004395 13354.647550 4742.369505 9599.794574 1782.397815 12221.097755 9929.814041 -5837.883404 -5876.832870 3937.480473 12813.440835 -11093.997165 -12373.428456 -5771.024720 -2276.180021 429.896903 3621.186390 1014.790499 -3810.234805 -2665.669982 -1431.182407 -912.246950 -634.669193 -458.918003 -326.760896 -216.740353 -122.766771 -44.365125 17.766356 63.531440 93.901351 110.784773 116.677348 114.283998 106.206201 94.727745 81.699095 68.503698 56.083349 44.999969 35.514599 27.669125 21.361034 16.405681 12.583899 9.675218 7.478474 5.822376 4.568788 3.611270 2.870989 2.291572 1.833970 1.471955 1.188529 0.973283 0.820600 0.728491 0.697835 0.731768 0.834990 1.012767 1.269440 1.606285 2.018541 2.491298 2.993433 3.467415 3.808900 3.821140 3.020507 1.397503 0.281055 -0.273167 -0.374205 -0.374205 -0.374205 21780.552221 21780.552221 21780.552221 21795.793072 22080.624031 20785.533423 19213.422697 20621.078814 22404.275880 23665.542877 24785.320511 24069.371930 22573.223497 22461.221860 20806.838597 21412.444609 20883.458163 19280.661814 18330.255483 18289.038579 17660.297117 16860.459202 15407.511489 15890.580763 16916.112023 16557.713938 16394.246122 18096.122414 15231.402590 14520.273255 13273.305625 11566.042320 12310.354004 11594.300766 10883.568515 10447.843353 8322.089149 8622.668340 7833.395523 7735.936167 5988.413036 2438.863334 1947.171986 3033.997934 3766.468918 -991.501098 -2997.201254 -2078.024736 -677.661986 449.128406 1319.450406 489.162724 -1125.613304 -1110.719520 -854.689857 -641.644138 -499.568927 -388.631285 -289.605105 -197.346148 -113.192922 -40.253293 18.923604 63.212118 92.973276 109.738552 115.766666 113.615421 105.798721 94.552594 81.705925 68.637071 56.292331 45.242925 35.760768 27.898179 21.561517 16.572977 12.718168 9.779562 7.557476 5.881036 4.611841 3.642812 2.894332 2.309257 1.847866 1.483403 1.198480 0.982432 0.829473 0.737512 0.707347 0.742033 0.846163 1.024880 1.282431 1.620188 2.034050 2.511203 3.026079 3.534957 3.968127 4.219773 4.183289 3.885352 3.578121 3.409417 3.375901 3.375901 3.375901 21676.749951 21676.749951 21676.749951 21674.320601 21653.595497 21430.081785 21257.086455 21297.626174 21526.107072 21606.858716 21610.738343 21264.288137 20797.714153 20400.636821 19941.395455 19649.968166 19323.764671 18870.224783 18386.590889 17903.192628 17324.569884 16644.559677 15986.266742 15588.548353 15360.513470 15054.552420 14705.384661 14398.392700 13912.238414 13401.909239 12856.063597 12212.940256 11658.206129 11143.005278 10596.876669 9962.850469 9197.024407 8548.219244 7907.518668 7216.169210 6297.941310 5204.700493 4460.517880 4039.992716 3434.481122 2289.437053 1277.269945 814.858630 706.752350 721.085324 667.075780 374.396247 -34.908035 -288.591649 -384.382403 -401.508559 -376.018505 -323.911318 -255.438676 -179.684981 -104.710461 -36.894081 19.519743 62.454755 91.699708 108.425052 114.657907 112.809542 105.305421 94.333067 81.699734 68.779382 56.524084 45.515933 36.039359 28.158654 21.790363 16.764559 12.872377 9.899726 7.648680 5.948906 4.661744 3.679417 2.921434 2.329780 1.863973 1.496649 1.209977 0.992985 0.839695 0.747890 0.718272 0.753794 0.858920 1.038629 1.297028 1.635508 2.050509 2.531096 3.056764 3.596158 4.107939 4.546705 4.878993 5.106729 5.266366 5.336479 5.335271 5.335271 5.335271 21662.323642 21662.323642 21662.323642 21658.224876 21622.699634 21550.702555 21471.257003 21411.410135 21397.847277 21381.706915 21269.384850 20992.821026 20604.242215 20196.158729 19806.894938 19484.253751 19153.170031 18745.371007 18289.877971 17790.357035 17210.914287 16572.482517 15972.428335 15531.338357 15207.490495 14870.960071 14505.085811 14140.794305 13717.294492 13270.044785 12788.919372 12230.014450 11653.831391 11094.369362 10533.713316 9910.676072 9212.506956 8539.182436 7885.162137 7184.569529 6362.695413 5484.827916 4767.859141 4207.662218 3555.448765 2662.170743 1789.107420 1206.199099 913.325251 774.759844 633.727939 379.677252 61.311177 -184.529923 -317.617326 -365.010092 -356.885962 -313.836496 -250.123840 -176.957252 -103.428440 -36.421457 19.556688 62.281442 91.451185 108.178483 114.452763 112.661133 105.214342 94.291808 81.697201 68.803829 56.564854 45.564337 36.088961 28.205161 21.831313 16.798905 12.900070 9.921338 7.665108 5.961146 4.670754 3.686031 2.926332 2.333488 1.866882 1.499039 1.212049 0.994885 0.841534 0.749756 0.720234 0.755904 0.861203 1.041081 1.299616 1.638194 2.053328 2.534371 3.061596 3.605532 4.128940 4.593515 4.972311 5.261274 5.477213 5.581668 5.594428 5.594428 5.594428 21662.323642 21662.323642 21662.323642 21658.224876 21622.699634 21550.702555 21471.257003 21411.410135 21397.847277 21381.706915 21269.384850 20992.821026 20604.242215 20196.158729 19806.894938 19484.253751 19153.170031 18745.371007 18289.877971 17790.357035 17210.914287 16572.482517 15972.428335 15531.338357 15207.490495 14870.960071 14505.085811 14140.794305 13717.294492 13270.044785 12788.919372 12230.014450 11653.831391 11094.369362 10533.713316 9910.676072 9212.506956 8539.182436 7885.162137 7184.569529 6362.695413 5484.827916 4767.859141 4207.662218 3555.448765 2662.170743 1789.107420 1206.199099 913.325251 774.759844 633.727939 379.677252 61.311177 -184.529923 -317.617326 -365.010092 -356.885962 -313.836496 -250.123840 -176.957252 -103.428440 -36.421457 19.556688 62.281442 91.451185 108.178483 114.452763 112.661133 105.214342 94.291808 81.697201 68.803829 56.564854 45.564337 36.088961 28.205161 21.831313 16.798905 12.900070 9.921338 7.665108 5.961146 4.670754 3.686031 2.926332 2.333488 1.866882 1.499039 1.212049 0.994885 0.841534 0.749756 0.720234 0.755904 0.861203 1.041081 1.299616 1.638194 2.053328 2.534371 3.061596 3.605532 4.128940 4.593515 4.972311 5.261274 5.477213 5.581668 5.594428 5.594428 5.594428 21662.323642 21662.323642 21662.323642 21658.224876 21622.699634 21550.702555 21471.257003 21411.410135 21397.847277 21381.706915 21269.384850 20992.821026 20604.242215 20196.158729 19806.894938 19484.253751 19153.170031 18745.371007 18289.877971 17790.357035 17210.914287 16572.482517 15972.428335 15531.338357 15207.490495 14870.960071 14505.085811 14140.794305 13717.294492 13270.044785 12788.919372 12230.014450 11653.831391 11094.369362 10533.713316 9910.676072 9212.506956 8539.182436 7885.162137 7184.569529 6362.695413 5484.827916 4767.859141 4207.662218 3555.448765 2662.170743 1789.107420 1206.199099 913.325251 774.759844 633.727939 379.677252 61.311177 -184.529923 -317.617326 -365.010092 -356.885962 -313.836496 -250.123840 -176.957252 -103.428440 -36.421457 19.556688 62.281442 91.451185 108.178483 114.452763 112.661133 105.214342 94.291808 81.697201 68.803829 56.564854 45.564337 36.088961 28.205161 21.831313 16.798905 12.900070 9.921338 7.665108 5.961146 4.670754 3.686031 2.926332 2.333488 1.866882 1.499039 1.212049 0.994885 0.841534 0.749756 0.720234 0.755904 0.861203 1.041081 1.299616 1.638194 2.053328 2.534371 3.061596 3.605532 4.128940 4.593515 4.972311 5.261274 5.477213 5.581668 5.594428 5.594428 5.594428 12928.669742 12928.669742 12928.669742 12932.755657 13030.710666 13485.993887 14840.075658 15513.452240 14415.751174 13888.685518 13512.906114 11848.270957 11593.748961 12129.696020 11312.495596 10422.906979 8498.740279 7284.420697 7500.508499 7597.482605 6690.517491 5395.545099 3601.137554 3964.998419 4676.059403 4730.454437 674.823695 1168.838495 -1334.533004 4771.193182 2704.376454 -4719.061902 1390.036693 -636.961341 -4112.776195 -2309.996210 -753.701849 479.381213 1236.237064 -346.995679 -1405.011639 -700.155858 19.765390 874.727542 232.700499 -1571.090354 -1259.825740 -164.090036 -436.348081 -2281.075501 -2460.141876 -1994.393924 -1741.255829 -1579.264668 -1469.074430 -1391.724186 13118.515560 13118.515560 13118.515560 13109.644939 13241.725044 13222.304007 11852.716420 15189.834593 12738.374219 11292.428616 11604.124398 13549.015683 15914.386633 13772.433599 12772.600640 15290.601877 15676.323944 12398.261285 13656.716315 15173.915546 15057.089582 14004.295514 14335.357981 12885.999156 14607.249742 17971.302119 14899.395320 13918.335923 10243.776616 13552.903603 15118.923385 13715.636603 14840.036436 15811.261138 16188.569813 14101.959723 13253.204710 14556.159521 14776.749419 13319.263331 13360.547260 13951.587402 15381.110335 11557.183113 14390.341717 14445.925178 14065.417903 13940.507020 15002.633013 14510.365670 16172.475701 15026.001671 15594.480152 1647.313580 -211.667325 -1016.189673 13444.730654 13444.730654 13444.730654 13519.387720 14825.622785 15853.890774 11287.389019 11039.500088 13149.371243 12114.195041 13880.613143 12867.955647 13281.208610 11435.722139 10998.591372 12216.896288 12787.043550 13902.555165 13619.374487 12805.645920 14301.745828 12872.781181 13371.707907 12370.186859 11586.345057 13194.783823 11927.958832 15322.886253 13334.448047 14227.559895 13515.935548 14316.585312 16960.421827 14721.982986 15903.196152 14904.490177 14833.318979 12641.968075 15442.349270 15557.002055 15233.300768 14861.674325 13681.384903 15055.030922 17423.992595 14226.148496 14752.336418 13617.816853 16787.302105 15818.340819 16920.955430 16651.626332 6602.195102 9068.249534 1354.389864 124.784563 13774.557653 13774.557653 13774.557653 13785.359017 14588.452637 15053.464080 13156.672925 14072.514941 12163.056146 9789.375214 9562.688928 10596.170951 11183.540640 13585.299743 12800.316718 11866.207922 17143.364718 14949.670696 11939.929171 14125.987299 16005.076751 14106.829336 12081.076602 15010.005000 15640.190411 13916.386728 13879.405177 13012.465446 15967.973401 16460.891883 14236.168414 11880.348540 16789.140113 16338.420431 16170.804593 18043.018366 17988.732599 14537.573918 14069.303522 16427.076271 15465.199858 13991.107124 17371.354900 14890.001259 16045.794102 14661.100973 14345.677845 15234.912848 17655.698521 15427.099389 12025.593875 15709.881958 539.119835 14429.115596