<VTKFile type="PolyData">
<PolyData>
<Piece NumberOfPoints="8632" NumberOfVerts="8632" NumberOfLines="0" NumberOfStrips="0" NumberOfPolys="0">
<PointData>
<DataArray type="Float64" Name="Pressure" format="ascii">
 7946.947491 7946.947491 7946.947491 7967.734868 8202.748533 8820.213830 9458.524392 10051.028579 10524.768536 10853.916867 11049.578625 11115.309972 11067.232958 10936.112697 10736.253436 10482.602052 10192.624079 9879.331794 9546.625554 9195.576924 8833.702255 8469.775255 8108.312425 7751.004441 7398.800663 7050.668968 6703.946276 6358.163826 6016.581489 5682.817394 5356.647241 5034.287981 4712.637804 4392.061378 4075.579455 3766.886114 3466.433122 3169.120722 2876.923890 2597.870366 2321.543750 2046.625026 1796.977042 1578.595050 1344.680672 1064.228554 720.738859 427.178147 290.954266 142.414995 -92.141476 -254.651606 -389.862590 -599.760618 -789.471341 -868.776292 -850.534851 -776.877462 -678.637851 -572.938388 -469.163775 -373.080279 -288.260893 -216.533489 -158.251511 -112.631156 -78.147647 -52.918191 -35.011331 -22.655892 -14.352451 -8.907980 -5.419997 -3.234176 -1.893105 -1.087093 -0.612378 -0.338355 -0.183332 -0.097389 -0.050709 -0.025873 -0.012933 -0.006332 -0.003036 -0.001426 -0.000655 -0.000295 -0.000130 -0.000056 -0.000024 -0.000010 -0.000004 -0.000002 -0.000001 -0.000000 -0.000000 -0.000000 -0.000000 -0.000000 -0.000000 -0.000000 -0.000000 -0.000000 -0.000000 -0.000000 -0.000000 -0.000000 -0.000000 -0.000000 -0.000000 7946.947491 7946.947491 7946.947491 7967.734868 8202.748533 8820.213830 9458.524392 10051.028579 10524.768536 10853.916867 11049.578625 11115.309972 11067.232958 10936.112697 10736.253436 10482.602052 10192.624079 9879.331794 9546.625554 9195.576924 8833.702255 8469.775255 8108.312425 7751.004441 7398.800663 7050.668968 6703.946276 6358.163826 6016.581489 5682.817394 5356.647241 5034.287981 4712.637804 4392.061378 4075.579455 3766.886114 3466.433122 3169.120722 2876.923890 2597.870366 2321.543750 2046.625026 1796.977042 1578.595050 1344.680672 1064.228554 720.738859 427.178147 290.954266 142.414995 -92.141476 -254.651606 -389.862590 -599.760618 -789.471341 -868.776292 -850.534851 -776.877462 -678.637851 -572.938388 -469.163775 -373.080279 -288.260893 -216.533489 -158.251511 -112.631156 -78.147647 -52.918191 -35.011331 -22.655892 -14.352451 -8.907980 -5.419997 -3.234176 -1.893105 -1.087093 -0.612378 -0.338355 -0.183332 -0.097389 -0.050709 -0.025873 -0.012933 -0.006332 -0.003036 -0.001426 -0.000655 -0.000295 -0.000130 -0.000056 -0.000024 -0.000010 -0.000004 -0.000002 -0.000001 -0.000000 -0.000000 -0.000000 -0.000000 -0.000000 -0.000000 -0.000000 -0.000000 -0.000000 -0.000000 -0.000000 -0.000000 -0.000000 -0.000000 -0.000000 -0.000000 7946.947491 7946.947491 7946.947491 7967.734868 8202.748533 8820.213830 9458.524392 10051.028579 10524.768536 10853.916867 11049.578625 11115.309972 11067.232958 10936.112697 10736.253436 10482.602052 10192.624079 9879.331794 9546.625554 9195.576924 8833.702255 8469.775255 8108.312425 7751.004441 7398.800663 7050.668968 6703.946276 6358.163826 6016.581489 5682.817394 5356.647241 5034.287981 4712.637804 4392.061378 4075.579455 3766.886114 3466.433122 3169.120722 2876.923890 2597.870366 2321.543750 2046.625026 1796.977042 1578.595050 1344.680672 1064.228554 720.738859 427.178147 290.954266 142.414995 -92.141476 -254.651606 -389.862590 -599.760618 -789.471341 -868.776292 -850.534851 -776.877462 -678.637851 -572.938388 -469.163775 -373.080279 -288.260893 -216.533489 -158.251511 -112.631156 -78.147647 -52.918191 -35.011331 -22.655892 -14.352451 -8.907980 -5.419997 -3.234176 -1.893105 -1.087093 -0.612378 -0.338355 -0.183332 -0.097389 -0.050709 -0.025873 -0.012933 -0.006332 -0.003036 -0.001426 -0.000655 -0.000295 -0.000130 -0.000056 -0.000024 -0.000010 -0.000004 -0.000002 -0.000001 -0.000000 -0.000000 -0.000000 -0.000000 -0.000000 -0.000000 -0.000000 -0.000000 -0.000000 -0.000000 -0.000000 -0.000000 -0.000000 -0.000000 -0.000000 -0.000000 8015.349129 8015.349129 8015.349129 8034.106004 8260.012159 8873.432375 9514.822087 10106.328890 10565.018886 10876.727566 11067.826543 11119.820106 11051.109164 10912.063280 10705.036235 10450.208604 10164.602957 9859.072625 9534.789099 9189.349317 8834.835788 8479.319688 8124.400138 7772.268990 7425.702199 7083.016919 6738.880719 6393.921966 6055.007021 5727.519163 5408.229377 5089.143423 4765.839134 4440.545612 4118.449267 3804.922396 3501.283694 3196.154158 2891.236173 2608.461260 2320.667438 2030.424757 1766.957824 1568.119972 1321.225764 1039.600274 644.142074 298.014211 247.714803 147.920551 -152.092296 -283.793740 -368.263301 -618.429277 -835.994741 -906.746640 -871.453663 -786.489477 -682.595029 -574.472986 -469.683142 -373.172859 -288.176291 -216.383273 -158.088475 -112.480569 -78.020384 -52.817084 -34.934804 -22.600267 -14.313413 -8.881419 -5.402424 -3.222843 -1.885969 -1.082701 -0.609733 -0.336796 -0.182432 -0.096881 -0.050428 -0.025721 -0.012853 -0.006291 -0.003015 -0.001415 -0.000650 -0.000293 -0.000129 -0.000055 -0.000023 -0.000010 -0.000004 -0.000002 -0.000001 -0.000000 -0.000000 -0.000000 -0.000000 -0.000000 -0.000000 -0.000000 -0.000000 -0.000000 -0.000000 -0.000000 -0.000000 -0.000000 -0.000000 -0.000000 -0.000000 8781.741744 8781.741744 8781.741744 8792.693418 8979.347043 9603.957794 10428.157565 11075.715982 11322.869087 11427.515081 11715.583495 11523.317004 11118.504293 10909.723597 10578.754016 10333.594599 10052.922740 9796.121234 9499.628263 9185.448749 8953.221625 8734.925393 8470.171783 8205.985125 7964.854224 7680.934397 7325.119890 6967.424768 6668.011368 6413.110409 6134.368794 5802.401950 5439.281989 5064.382389 4674.905171 4277.455722 3919.938870 3488.032793 2974.571710 2754.813580 2294.478912 1896.203481 1346.543684 1788.278908 787.075341 1200.926271 -456.451523 -1726.904344 108.564842 590.856918 -1394.176312 -587.622832 262.286391 -948.452660 -1521.975368 -1358.640234 -1102.457314 -882.511003 -721.469528 -589.393393 -474.685458 -374.014734 -287.291887 -214.862761 -156.449488 -110.971317 -76.747328 -51.807161 -34.171374 -22.046007 -13.924841 -8.617311 -5.227851 -3.110366 -1.815210 -1.039185 -0.583553 -0.321381 -0.173548 -0.091870 -0.047661 -0.024227 -0.012063 -0.005883 -0.002809 -0.001313 -0.000601 -0.000269 -0.000118 -0.000051 -0.000021 -0.000009 -0.000004 -0.000001 -0.000001 -0.000000 -0.000000 -0.000000 -0.000000 -0.000000 -0.000000 -0.000000 -0.000000 -0.000000 -0.000000 -0.000000 -0.000000 -0.000000 -0.000000 -0.000000 -0.000000 9959.744866 9959.744866 9959.744866 9957.651489 10330.662824 11080.588111 12024.894294 13831.318901 13527.574808 13252.172972 14761.820382 13822.567409 12230.790968 12360.168783 11438.544468 11750.115137 11188.516338 10509.260066 10063.732333 9538.765258 9567.483188 9474.859469 9413.845145 9384.652007 9373.900718 9199.340969 8884.215705 8558.258098 8280.749577 7899.671979 7365.479192 6825.335992 6381.616824 6044.255412 5573.134128 4863.304116 4504.660798 3807.787822 2616.604440 3344.330699 2254.863118 2719.694617 -614.415084 5131.709091 -2558.054712 3080.250124 -2112.061211 -8004.706031 403.498532 1324.051011 -4130.928563 -1136.136649 1245.091717 -1959.970856 -2731.574313 -1987.763506 -1484.001287 -1036.441790 -780.804347 -612.207881 -482.689998 -375.897236 -286.653892 -213.278709 -154.643959 -109.281351 -75.315152 -50.670763 -33.313804 -21.424998 -13.490751 -8.323167 -5.034023 -2.985866 -1.737125 -0.991311 -0.554839 -0.304527 -0.163866 -0.086427 -0.044667 -0.022616 -0.011215 -0.005446 -0.002590 -0.001205 -0.000549 -0.000245 -0.000107 -0.000046 -0.000019 -0.000008 -0.000003 -0.000001 -0.000000 -0.000000 -0.000000 -0.000000 -0.000000 -0.000000 -0.000000 -0.000000 -0.000000 -0.000000 -0.000000 -0.000000 -0.000000 -0.000000 -0.000000 -0.000000 -0.000000 -0.000000 -0.000000 -0.000000 -0.000000 -0.000000 -0.000000 -0.000000 -0.000000 -0.000000 -0.000000 -0.000000 -0.000000 -0.000000 -0.000000 -0.000000 -0.000000 -0.000000 -0.000000 -0.000000 -0.000000 -0.000000 -0.000000 -0.000000 -0.000000 -0.000000 -0.000000 -0.000000 -0.000000 -0.000000 -0.000000 -0.000000 -0.000000 -0.000000 -0.000000 -0.000000 -0.000000 -0.000000 -0.000000 -0.000000 -0.000000 -0.000000 -0.000000 -0.000000 -0.000000 -0.000000 -0.000000 -0.000000 -0.000000 -0.000000 -0.000000 -0.000000 -0.000000 -0.000000 -0.000000 -0.000000 -0.000000 -0.000000 -0.000000 -0.000000 -0.000000 -0.000000 -0.000000 -0.000000 -0.000000 -0.000000 -0.000000 -0.000000 -0.000000 -0.000000 -0.000000 -0.000000 -0.000000 -0.000000 -0.000000 -0.000000 -0.000000 -0.000000 -0.000000 -0.000000 -0.000000 -0.000000 -0.000000 -0.000000 -0.000000 -0.000000 -0.000000 -0.000000 -0.000000 -0.000000 -0.000000 -0.000000 -0.000000 -0.000000 -0.000000 -0.000000 -0.000000 -0.000000 -0.000000 -0.000000 -0.000000 -0.000000 -0.000000 -0.000000 -0.000000 -0.000000 -0.000000 -0.000000 -0.000000 -0.000000 -0.000000 -0.000000 -0.000000 -0.000000 -0.000000 -0.000000 -0.000000 -0.000000 -0.000000 -0.000000 -0.000000 -0.000000 -0.000000 -0.000000 -0.000000 -0.000000 -0.000000 -0.000000 -0.000000 -0.000000 -0.000000 -0.000000 -0.000000 -0.000000 -0.000000 -0.000000 -0.000000 -0.000000 -0.000000 -0.000000 -0.000000 -0.000000 -0.000000 -0.000000 -0.000000 -0.000000 -0.000000 -0.000000 -0.000000 -0.000000 -0.000000 -0.000000 -0.000000 -0.000000 -0.000000 -0.000000 -0.000000 -0.000000 -0.000000 -0.000000 -0.000000 -0.000000 -0.000000 -0.000000 -0.000000 -0.000000 -0.000000 -0.000000 -0.000000 -0.000000 -0.000000 -0.000000 -0.000000 -0.000000 -0.000000 -0.000000 -0.000000 -0.000000 -0.000000 -0.000000 -0.000000 -0.000000 -0.000000 -0.000000 -0.000000 -0.000000 -0.000000 -0.000000 -0.000000 -0.000000 -0.000000 -0.000000 -0.000000 -0.000000 -0.000000 -0.000000 -0.000000 -0.000000 -0.000000 -0.000000 -0.000000 -0.000000 -0.000000 -0.000000 -0.000000 -0.000000 -0.000000 -0.000000 -0.000000 -0.000000 -0.000000 -0.000000 -0.000000 -0.000000 -0.000000 -0.000000 -0.000000 -0.000000 -0.000000 -0.000000 -0.000000 -0.000000 -0.000000 -0.000000 -0.000000 -0.000000 -0.000000 -0.000000 -0.000000 -0.000000 -0.000000 -0.000000 -0.000000 -0.000000 -0.000000 -0.000000 -0.000000 -0.000000 -0.000000 -0.000000 -0.000000 -0.000000 -0.000000 -0.000000 -0.000000 -0.000000 -0.000000 -0.000000 -0.000000 -0.000000 -0.000000 -0.000000 -0.000000 -0.000000 -0.000000 -0.000000 -0.000000 -0.000000 -0.000000 -0.000000 -0.000000 -0.000000 -0.000000 -0.000000 -0.000000 -0.000000 -0.000000 -0.000000 -0.000000 -0.000000 -0.000000 -0.000000 -0.000000 -0.000000 -0.000000 -0.000000 -0.000000 -0.000000 -0.000000 -0.000000 0.000000 0.000000 0.000000 -0.000000 -0.000000 -0.000000 0.000000 0.000000 0.000000 -0.000000 -0.000000 -0.000000 0.000000 0.000000 0.000000 -0.000000 -0.000000 -0.000000 0.000000 0.000000 0.000000 -0.000000 -0.000000 -0.000000 0.000000 0.000000 0.000000 -0.000000 -0.000000 -0.000000 0.000000 0.000000 0.000000 -0.000000 -0.000000 -0.000000 0.000000 0.000000 0.000000 -0.000000 -0.000000 -0.000000 0.000000 0.000000 0.000000 -0.000000 -0.000000 -0.000000 0.000000 0.000000 0.000000 -0.000000 -0.000000 -0.000000 0.000000 0.000000 0.000000 -0.000000 -0.000000 -0.000000 0.000000 0.000000 0.000000 -0.000000 -0.000000 -0.000000 0.000000 0.000000 0.000000 -0.000000 -0.000000 -0.000000 0.000000 0.000000 0.000000 -0.000000 -0.000000 -0.000000 0.000000 0.000000 0.000000 -0.000000 -0.000000 -0.000000 0.000000 0.000000 0.000000 -0.000000 -0.000000 -0.000000 0.000000 0.000000 0.000000 -0.000000 -0.000000 -0.000000 0.000000 0.000000 0.000000 -0.000000 -0.000000 -0.000000 0.000000 0.000000 0.000000 -0.000000 -0.000000 -0.000000 0.000000 0.000000 0.000000 -0.000000 -0.000000 -0.000000 0.000000 0.000000 0.000000 -0.000000 -0.000000 -0.000000 0.000000 0.000000 0.000000 -0.000000 -0.000000 -0.000000 0.000000 0.000000 0.000000 -0.000000 -0.000000 -0.000000 0.000000 0.000000 0.000000 -0.000000 -0.000000 -0.000000 0.000000 0.000000 0.000000 -0.000000 -0.000000 -0.000000 0.000000 0.000000 0.000000 -0.000000 -0.000000 -0.000000 0.000000 0.000000 0.000000 -0.000000 -0.000000 -0.000000 0.000000 0.000000 0.000000 -0.000000 -0.000000 -0.000000 0.000000 0.000000 0.000000 -0.000000 -0.000000 -0.000000 0.000000 0.000000 0.000000 -0.000000 -0.000000 -0.000000 0.000000 0.000000 0.000000 -0.000000 -0.000000 -0.000000 0.000000 0.000000 0.000000 -0.000000 -0.000000 -0.000000 0.000000 0.000000 0.000000 -0.000000 -0.000000 -0.000000 0.000000 0.000000 0.000000 -0.000000 -0.000000 -0.000000 0.000000 0.000000 0.000000 -0.000000 -0.000000 -0.000000 0.000000 0.000000 0.000000 -0.000000 -0.000000 -0.000000 0.000000 0.000000 0.000000 -0.000000 -0.000000 -0.000000 0.000000 0.000000 0.000000 -0.000000 -0.000000 -0.000000 0.000000 0.000000 0.000000 -0.000000 -0.000000 -0.000000 0.000000 0.000000 0.000000 -0.000000 -0.000000 -0.000000 0.000000 0.000000 0.000000 -0.000000 -0.000000 -0.000000 0.000000 0.000000 0.000000 -0.000000 -0.000000 -0.000000 0.000000 0.000000 0.000000 -0.000000 -0.000000 -0.000000 0.000000 0.000000 0.000000 -0.000000 -0.000000 -0.000000 0.000000 0.000000 0.000000 -0.000000 -0.000000 -0.000000 0.000000 0.000000 0.000000 -0.000000 -0.000000 -0.000000 0.000000 0.000000 0.000000 -0.000000 -0.000000 -0.000000 0.000000 0.000000 0.000000 -0.000000 -0.000000 -0.000000 0.000000 0.000000 0.000000 -0.000000 -0.000000 -0.000000 0.000000 0.000000 0.000000 -0.000000 -0.000000 -0.000000 0.000000 0.000000 0.000000 -0.000000 -0.000000 -0.000000 0.000000 0.000000 0.000000 -0.000000 -0.000000 -0.000000 0.000000 0.000000 0.000000 -0.000000 -0.000000 -0.000000 0.000000 0.000000 0.000000 -0.000000 -0.000000 -0.000000 0.000000 0.000000 0.000000 -0.000000 -0.000000 -0.000000 0.000000 0.000000 0.000000 -0.000000 -0.000000 -0.000000 0.000000 0.000000 0.000000 -0.000000 -0.000000 -0.000000 0.000000 0.000000 0.000000 -0.000000 -0.000000 -0.000000 0.000000 0.000000 0.000000 -0.000000 -0.000000 -0.000000 0.000000 0.000000 0.000000 -0.000000 -0.000000 -0.000000 0.000000 0.000000 0.000000 -0.000000 -0.000000 -0.000000 0.000000 0.000000 0.000000 -0.000000 -0.000000 -0.000000 0.000000 0.000000 0.000000 -0.000000 -0.000000 -0.000000 0.000000 0.000000 0.000000 -0.000000 -0.000000 -0.000000 0.000000 0.000000 0.000000 -0.000000 -0.000000 -0.000000 0.000000 0.000000 0.000000 -0.000000 -0.000000 -0.000000 0.000000 0.000000 0.000000 -0.000000 -0.000000 -0.000000 0.000000 0.000000 0.000000 -0.000000 -0.000000 -0.000000 0.000000 0.000000 0.000000 -0.000000 -0.000000 -0.000000 0.000000 0.000000 0.000000 -0.000000 -0.000000 -0.000000 0.000000 0.000000 0.000000 -0.000000 -0.000000 -0.000000 0.000000 0.000000 0.000000 -0.000000 -0.000000 -0.000000 0.000000 0.000000 0.000000 -0.000000 -0.000000 -0.000000 0.000000 0.000000 0.000000 -0.000000 -0.000000 -0.000000 0.000000 0.000000 0.000000 -0.000000 -0.000000 -0.000000 0.000000 0.000000 0.000000 -0.000000 -0.000000 -0.000000 0.000000 0.000000 0.000000 -0.000000 -0.000000 -0.000000 0.000000 0.000000 0.000000 -0.000000 -0.000000 -0.000000 0.000000 0.000000 0.000000 -0.000000 -0.000000 -0.000000 0.000000 0.000000 0.000000 -0.000000 -0.000000 -0.000000 0.000000 0.000000 0.000000 -0.000000 -0.000000 -0.000000 0.000000 0.000000 0.000000 -0.000000 -0.000000 -0.000000 0.000000 0.000000 0.000000 -0.000000 -0.000000 -0.000000 0.000000 0.000000 0.000000 -0.000000 -0.000000 -0.000000 0.000000 0.000000 0.000000 -0.000000 -0.000000 -0.000000 0.000000 0.000000 0.000000 -0.000000 -0.000000 -0.000000 0.000000 0.000000 0.000000 -0.000000 -0.000000 -0.000000 0.000000 0.000000 0.000000 -0.000000 -0.000000 -0.000000 0.000000 0.000000 0.000000 -0.000000 -0.000000 -0.000000 0.000000 0.000000 0.000000 -0.000000 -0.000000 -0.000000 0.000000 0.000000 0.000000 -0.000000 -0.000000 -0.000000 0.000000 0.000000 0.000000 -0.000000 -0.000000 -0.000000 0.000000 0.000000 0.000000 -0.000000 -0.000000 -0.000000 0.000000 0.000000 0.000000 -0.000000 -0.000000 -0.000000 0.000000 0.000000 0.000000 -0.000000 -0.000000 -0.000000 0.000000 0.000000 0.000000 -0.000000 -0.000000 -0.000000 0.000000 0.000000 0.000000 -0.000000 -0.000000 -0.000000 0.000000 0.000000 0.000000 -0.000000 -0.000000 -0.000000 0.000000 0.000000 0.000000 -0.000000 -0.000000 -0.000000 0.000000 0.000000 0.000000 -0.000000 -0.000000 -0.000000 0.000000 0.000000 0.000000 -0.000000 -0.000000 -0.000000 0.000000 0.000000 0.000000 -0.000000 -0.000000 -0.000000 0.000000 0.000000 0.000000 -0.000000 -0.000000 -0.000000 0.000000 0.000000 0.000000 -0.000000 -0.000000 -0.000000 0.000000 0.000000 0.000000 -0.000000 -0.000000 -0.000000 0.000000 0.000000 0.000000 -0.000000 -0.000000 -0.000000 0.000000 0.000000 0.000000 -0.000000 -0.000000 -0.000000 0.000000 0.000000 0.000000 -0.000000 -0.000000 -0.000000 0.000000 0.000000 0.000000 -0.000000 -0.000000 -0.000000 0.000000 0.000000 0.000000 -0.000000 -0.000000 -0.000000 0.000000 0.000000 0.000000 -0.000000 -0.000000 -0.000000 0.000000 0.000000 0.000000 -0.000000 -0.000000 -0.000000 0.000000 0.000000 0.000000 -0.000000 -0.000000 -0.000000 0.000000 0.000000 0.000000 -0.000000 -0.000000 -0.000000 0.000000 0.000000 0.000000 -0.000000 -0.000000 -0.000000 -0.000000 -0.000000 -0.000000 -0.000000 -0.000000 -0.000000 -0.000000 -0.000000 -0.000000 -0.000000 -0.000000 -0.000000 -0.000000 -0.000000 -0.000000 -0.000000 -0.000000 -0.000000 -0.000000 -0.000000 -0.000000 -0.000000 -0.000000 -0.000000 -0.000000 -0.000000 -0.000000 0.000000 -0.000000 -0.000000 -0.000000 -0.000000 -0.000000 0.000000 -0.000000 -0.000000 -0.000000 -0.000000 -0.000000 0.000000 -0.000000 -0.000000 -0.000000 -0.000000 -0.000000 0.000000 -0.000000 -0.000000 -0.000000 -0.000000 -0.000000 0.000000 -0.000000 -0.000000 -0.000000 -0.000000 -0.000000 0.000000 -0.000000 -0.000000 -0.000000 -0.000000 -0.000000 0.000000 -0.000000 -0.000000 -0.000000 -0.000000 -0.000000 0.000000 -0.000000 -0.000000 -0.000000 -0.000000 -0.000000 0.000000 -0.000000 -0.000000 -0.000000 -0.000000 -0.000000 0.000000 -0.000000 -0.000000 -0.000000 -0.000000 -0.000000 0.000000 -0.000000 -0.000000 -0.000000 -0.000000 -0.000000 0.000000 -0.000000 -0.000000 -0.000000 -0.000000 -0.000000 0.000000 -0.000000 -0.000000 -0.000000 -0.000000 -0.000000 0.000000 -0.000000 -0.000000 -0.000000 -0.000000 -0.000000 0.000000 -0.000000 -0.000000 -0.000000 -0.000000 -0.000000 0.000000 -0.000000 -0.000000 -0.000000 -0.000000 -0.000000 0.000000 -0.000000 -0.000000 -0.000000 -0.000000 -0.000000 0.000000 -0.000000 -0.000000 -0.000000 -0.000000 -0.000000 0.000000 -0.000000 -0.000000 -0.000000 -0.000000 -0.000000 0.000000 -0.000000 -0.000000 -0.000000 -0.000000 -0.000000 0.000000 -0.000000 -0.000000 -0.000000 -0.000000 -0.000000 0.000000 -0.000000 -0.000000 -0.000000 -0.000000 -0.000000 0.000000 -0.000000 -0.000000 -0.000000 -0.000000 -0.000000 0.000000 -0.000000 -0.000000 -0.000000 -0.000000 -0.000000 0.000000 -0.000000 -0.000000 -0.000000 -0.000000 -0.000000 0.000000 -0.000000 -0.000000 -0.000000 -0.000000 -0.000000 0.000000 -0.000000 -0.000000 -0.000000 -0.000000 -0.000000 0.000000 -0.000000 -0.000000 -0.000000 -0.000000 -0.000000 0.000000 -0.000000 -0.000000 -0.000000 -0.000000 -0.000000 0.000000 -0.000000 -0.000000 -0.000000 -0.000000 -0.000000 0.000000 -0.000000 -0.000000 -0.000000 -0.000000 -0.000000 0.000000 -0.000000 -0.000000 -0.000000 -0.000000 -0.000000 0.000000 -0.000000 -0.000000 -0.000000 -0.000000 -0.000000 0.000000 -0.000000 -0.000000 -0.000000 -0.000000 -0.000000 -0.000000 -0.000000 0.000000 0.000000 0.000000 0.000000 8519.064770 8519.064770 8519.064770 8795.601689 12298.876673 19297.245134 24709.306313 25964.420814 26002.963054 31076.200931 25780.857149 23694.636558 24193.052950 19542.233331 16524.622856 15147.735786 13712.966210 11683.435302 9845.023405 8280.714954 7394.404818 5945.268257 3496.966893 1185.949156 2281.151709 1889.907872 359.655652 -13.655209 -70.236682 -49.343753 -25.275471 -12.151298 -7.781333 -7.831549 -9.213586 -10.306775 -10.520609 -9.853556 -8.569823 -6.993728 -5.399123 -3.967446 -2.788427 -1.881523 -1.222568 -0.766850 -0.465251 -0.273476 -0.155956 -0.086384 -0.046519 -0.024376 -0.012437 -0.006183 -0.002996 -0.001416 -0.000653 -0.000294 -0.000129 -0.000055 -0.000023 -0.000010 -0.000004 -0.000001 -0.000001 -0.000000 -0.000000 -0.000000 -0.000000 -0.000000 -0.000000 -0.000000 -0.000000 -0.000000 -0.000000 -0.000000 -0.000000 -0.000000 -0.000000 -0.000000 -0.000000 -0.000000 -0.000000 -0.000000 -0.000000 -0.000000 -0.000000 -0.000000 -0.000000 -0.000000 -0.000000 -0.000000 -0.000000 -0.000000 -0.000000 -0.000000 -0.000000 -0.000000 -0.000000 -0.000000 -0.000000 -0.000000 -0.000000 -0.000000 -0.000000 -0.000000 -0.000000 0.000000 -0.000000 -0.000000 -0.000000 7170.815419 7170.815419 7170.815419 7310.208471 9484.095754 14400.737722 15305.536656 15351.612537 18557.275505 22577.498242 20195.670882 17164.420094 15809.909796 13178.138651 11198.379983 10175.275250 9249.354467 8038.501066 6953.914078 5998.614779 5268.628224 4309.312959 2819.843741 1655.570703 1317.931292 817.221124 303.171381 59.790616 -5.337728 -11.167309 -5.985941 -3.107187 -3.653822 -5.912476 -8.264729 -9.800329 -10.239631 -9.705332 -8.507142 -6.985763 -5.422754 -4.005492 -2.829281 -1.918460 -1.252600 -0.789450 -0.481240 -0.284214 -0.162844 -0.090625 -0.049033 -0.025815 -0.013234 -0.006610 -0.003219 -0.001529 -0.000708 -0.000320 -0.000141 -0.000061 -0.000026 -0.000011 -0.000004 -0.000002 -0.000001 -0.000000 -0.000000 -0.000000 -0.000000 -0.000000 -0.000000 -0.000000 -0.000000 -0.000000 -0.000000 -0.000000 -0.000000 0.000000 -0.000000 -0.000000 -0.000000 -0.000000 -0.000000 -0.000000 -0.000000 -0.000000 -0.000000 0.000000 -0.000000 -0.000000 0.000000 -0.000000 -0.000000 -0.000000 -0.000000 -0.000000 -0.000000 -0.000000 -0.000000 -0.000000 0.000000 -0.000000 -0.000000 0.000000 -0.000000 -0.000000 -0.000000 -0.000000 -0.000000 -0.000000 -0.000000 6420.565316 6420.565316 6420.565316 6474.588323 7128.664748 8911.793811 10107.447512 10688.970628 11154.460648 11183.092108 10464.554526 9637.605716 8899.490954 8172.456145 7455.207990 6808.782492 6183.669801 5528.921887 4860.952086 4202.427987 3549.153716 2864.267822 2157.975597 1520.277797 1005.591748 592.582561 297.074240 130.209017 54.244912 24.094349 11.905051 5.300353 0.201360 -4.095180 -7.340913 -9.288048 -9.944191 -9.544123 -8.436579 -6.975285 -5.447985 -4.047591 -2.875163 -1.960357 -1.286934 -0.815463 -0.499757 -0.296720 -0.170910 -0.095617 -0.052008 -0.027525 -0.014186 -0.007123 -0.003487 -0.001665 -0.000776 -0.000353 -0.000157 -0.000068 -0.000029 -0.000012 -0.000005 -0.000002 -0.000001 -0.000000 -0.000000 -0.000000 -0.000000 -0.000000 -0.000000 -0.000000 -0.000000 -0.000000 -0.000000 -0.000000 -0.000000 -0.000000 -0.000000 -0.000000 -0.000000 -0.000000 -0.000000 -0.000000 -0.000000 -0.000000 -0.000000 -0.000000 -0.000000 -0.000000 -0.000000 -0.000000 -0.000000 -0.000000 -0.000000 -0.000000 -0.000000 -0.000000 -0.000000 -0.000000 -0.000000 -0.000000 -0.000000 -0.000000 -0.000000 -0.000000 -0.000000 0.000000 0.000000 0.000000 0.000000 6319.091495 6319.091495 6319.091495 6365.631786 6879.765944 8160.776082 9330.062956 10017.398103 10080.083576 9824.049011 9352.104357 8759.756878 8166.605627 7570.934036 6969.320035 6380.014551 5789.729591 5180.001246 4556.877185 3932.012574 3306.093497 2670.879712 2040.454416 1460.099595 965.754413 573.822421 300.665279 141.519934 63.557677 29.607539 14.704299 6.615951 0.806116 -3.807338 -7.191644 -9.203056 -9.893915 -9.516106 -8.424064 -6.973273 -5.452322 -4.054986 -2.883294 -1.967826 -1.293083 -0.820140 -0.503098 -0.298983 -0.172375 -0.096526 -0.052551 -0.027839 -0.014360 -0.007218 -0.003537 -0.001690 -0.000788 -0.000359 -0.000159 -0.000069 -0.000029 -0.000012 -0.000005 -0.000002 -0.000001 -0.000000 -0.000000 -0.000000 -0.000000 -0.000000 -0.000000 -0.000000 -0.000000 -0.000000 -0.000000 -0.000000 -0.000000 -0.000000 -0.000000 -0.000000 -0.000000 -0.000000 -0.000000 -0.000000 -0.000000 -0.000000 -0.000000 -0.000000 -0.000000 -0.000000 -0.000000 -0.000000 -0.000000 -0.000000 -0.000000 -0.000000 -0.000000 -0.000000 -0.000000 -0.000000 -0.000000 -0.000000 -0.000000 -0.000000 -0.000000 0.000000 0.000000 0.000000 0.000000 0.000000 0.000000 6319.091495 6319.091495 6319.091495 6365.631786 6879.765944 8160.776082 9330.062956 10017.398103 10080.083576 9824.049011 9352.104357 8759.756878 8166.605627 7570.934036 6969.320035 6380.014551 5789.729591 5180.001246 4556.877185 3932.012574 3306.093497 2670.879712 2040.454416 1460.099595 965.754413 573.822421 300.665279 141.519934 63.557677 29.607539 14.704299 6.615951 0.806116 -3.807338 -7.191644 -9.203056 -9.893915 -9.516106 -8.424064 -6.973273 -5.452322 -4.054986 -2.883294 -1.967826 -1.293083 -0.820140 -0.503098 -0.298983 -0.172375 -0.096526 -0.052551 -0.027839 -0.014360 -0.007218 -0.003537 -0.001690 -0.000788 -0.000359 -0.000159 -0.000069 -0.000029 -0.000012 -0.000005 -0.000002 -0.000001 -0.000000 -0.000000 -0.000000 -0.000000 -0.000000 -0.000000 -0.000000 -0.000000 -0.000000 -0.000000 -0.000000 -0.000000 -0.000000 -0.000000 -0.000000 -0.000000 -0.000000 -0.000000 -0.000000 -0.000000 -0.000000 -0.000000 -0.000000 -0.000000 -0.000000 -0.000000 -0.000000 -0.000000 -0.000000 -0.000000 -0.000000 -0.000000 -0.000000 -0.000000 -0.000000 -0.000000 -0.000000 -0.000000 -0.000000 -0.000000 0.000000 0.000000 0.000000 0.000000 0.000000 0.000000 6319.091495 6319.091495 6319.091495 6365.631786 6879.765944 8160.776082 9330.062956 10017.398103 10080.083576 9824.049011 9352.104357 8759.756878 8166.605627 7570.934036 6969.320035 6380.014551 5789.729591 5180.001246 4556.877185 3932.012574 3306.093497 2670.879712 2040.454416 1460.099595 965.754413 573.822421 300.665279 141.519934 63.557677 29.607539 14.704299 6.615951 0.806116 -3.807338 -7.191644 -9.203056 -9.893915 -9.516106 -8.424064 -6.973273 -5.452322 -4.054986 -2.883294 -1.967826 -1.293083 -0.820140 -0.503098 -0.298983 -0.172375 -0.096526 -0.052551 -0.027839 -0.014360 -0.007218 -0.003537 -0.001690 -0.000788 -0.000359 -0.000159 -0.000069 -0.000029 -0.000012 -0.000005 -0.000002 -0.000001 -0.000000 -0.000000 -0.000000 -0.000000 -0.000000 -0.000000 -0.000000 -0.000000 -0.000000 -0.000000 -0.000000 -0.000000 -0.000000 -0.000000 -0.000000 -0.000000 -0.000000 -0.000000 -0.000000 -0.000000 -0.000000 -0.000000 -0.000000 -0.000000 -0.000000 -0.000000 -0.000000 -0.000000 -0.000000 -0.000000 -0.000000 -0.000000 -0.000000 -0.000000 -0.000000 -0.000000 -0.000000 -0.000000 -0.000000 -0.000000 0.000000 0.000000 0.000000 0.000000 0.000000 0.000000 10137.343976 10137.343976 10137.343976 10134.750220 10629.569930 11420.209946 12257.306585 14555.284421 14219.571057 13794.797079 15675.464423 14491.337241 12698.859157 13125.471550 11858.718696 12225.489419 11719.933104 10830.839165 10345.330594 9671.764965 9796.017263 9699.345737 9575.299975 9617.209824 9680.662194 9513.347677 9176.653282 8957.847359 8688.698662 8206.588356 7512.607627 6909.689991 6529.426753 6256.308787 5775.819338 4934.798788 4528.554261 3717.633847 2416.521972 3489.481765 2203.168302 3226.423061 -1317.206209 5943.763387 -4587.005417 2796.658366 -2486.236903 -9796.467227 192.061424 1363.533892 -4469.988100 -1209.760603 1270.364614 -2157.108307 -2872.667895 -2045.857018 11446.458457 11446.458457 11446.458457 11513.814870 12782.001928 14069.244256 13842.511545 14517.998031 15073.207271 19147.641906 19459.189888 17316.766895 17171.535375 17820.139498 18448.077327 16401.761516 17294.908676 17072.370657 15898.789711 15291.285491 14805.055561 14347.037695 13141.712713 12523.479261 12342.795605 11843.901426 11629.631163 11235.382927 10698.849982 10624.814478 10719.331081 11031.888219 11265.477688 11189.985882 11111.275841 11066.779139 10942.218827 10546.286065 9790.076393 8966.487730 8350.623874 8040.438997 7923.980959 7705.573411 7223.760819 6443.627163 5421.736798 4968.720694 4697.752145 3872.361078 3623.409909 3945.110407 3574.492631 2524.943608 1265.186461 1140.431464 13645.231806 13645.231806 13645.231806 13671.101366 14770.606594 16969.002623 19781.041418 19841.508324 18241.945446 22092.061750 21361.364726 21179.451704 18345.069116 22003.567301 17996.300108 20315.745439 17175.515488 17238.281555 16411.982747 15674.395938 15930.125596 16056.955707 15070.061940 14734.653195 14645.712829 14168.471028 14043.419185 13828.832164 13618.512251 13545.085976 13231.291794 13127.277259 13299.659082 13388.565309 13409.980168 13193.328364 12829.997973 12435.089454 11931.510506 11337.511665 10702.435558 10137.514356 9795.084706 9503.683893 9173.248911 8735.599283 7840.197572 6848.535595 5974.034066 5679.718334 4283.793331 2981.593842 2100.838397 2762.515620 1816.991182 3340.288898 15733.386776 15733.386776 15733.386776 15794.508842 16960.564990 19057.221689 17591.225619 23544.423559 23020.187762 22381.066403 24072.133457 23483.583854 22563.830641 21692.142648 23536.863464 22756.557554 23117.664948 20868.342258 21162.162646 19707.255235 19392.651931 18890.103913 17763.127902 17597.799226 17322.267727 16983.927204 16665.560958 16181.010789 15612.396466 15468.930900 15440.968761 15578.833509 15632.105147 15434.373942 15276.264529 15066.616805 14830.690266 14425.353783 13706.949198 12790.351513 11901.731515 11228.055789 10906.489719 10648.540420 10248.681536 9564.760817 8583.381274 7674.525658 6151.762948 5615.020270 4371.633936 4191.151240 2697.491876 1681.146242 943.661903 712.073949 17520.409637 17520.409637 17520.409637 17676.784558 19524.995548 21216.695389 21549.574347 22972.172823 25093.631292 26298.352091 26866.965035 27343.833917 26727.839487 25712.350109 22499.096875 22774.496257 20763.661172 20847.211032 20436.232023 19795.524992 18693.392530 18602.553107 18498.221145 18390.026359 18307.018185 17645.540767 16982.586277 16450.286406 15897.090664 15854.040146 15658.010072 15562.737900 15501.436423 15401.011827 15450.882802 15368.847120 15078.750438 14465.867842 13545.270561 12533.020565 11682.399348 11105.282727 10788.270901 10513.092900 10062.419343 9438.776005 8298.012622 7430.716681 6276.304331 5427.957724 4536.912748 3258.737592 3078.756519 1978.912689 537.720527 368.394291 18906.653882 18906.653882 18906.653882 19089.950476 21650.524476 23061.692754 25655.361436 