<VTKFile type="PolyData">
<PolyData>
<Piece NumberOfPoints="8632" NumberOfVerts="8632" NumberOfLines="0" NumberOfStrips="0" NumberOfPolys="0">
<PointData>
<DataArray type="Float64" Name="Pressure" format="ascii">
 15064.010460 15064.010460 15064.010460 15052.540155 14934.259958 14699.162713 14580.116266 14532.169498 14421.652735 14216.193448 13946.765749 13607.190297 13152.738010 12601.818011 12044.117799 11493.306193 10913.083178 10291.774847 9620.803637 8895.348080 8162.430242 7488.728444 6881.231489 6323.176573 5775.017269 5192.753952 4571.426253 3927.884357 3395.301414 3005.933137 2617.167335 2163.844774 1738.426372 1413.734715 1148.714389 882.071045 640.380662 484.025312 366.232242 225.514453 115.483754 76.237180 37.985821 -49.976665 -120.673058 -120.856639 -101.059161 -148.650827 -281.314847 -418.239750 -532.707951 -677.812821 -850.926292 -961.573927 -979.969675 -940.100151 -872.328188 -794.296257 -716.394228 -643.138547 -575.645070 -513.674921 -456.612790 -403.879927 -355.069447 -309.953954 -268.440222 -230.509638 -196.163951 -165.384871 -138.109492 -114.219892 -93.543635 -75.861519 -60.919337 -48.441075 -38.141733 -29.738625 -22.960569 -17.554732 -13.291219 -9.965617 -7.399844 -5.441647 -3.963134 -2.858637 -2.042222 -1.445050 -1.012772 -0.703077 -0.483470 -0.329326 -0.222222 -0.148548 -0.098374 -0.064542 -0.041953 -0.027018 -0.017240 -0.010898 -0.006823 -0.004229 -0.002589 -0.001559 -0.000914 -0.000508 -0.000243 -0.000100 -0.000076 -0.000076 -0.000076 15064.010460 15064.010460 15064.010460 15052.540155 14934.259958 14699.162713 14580.116266 14532.169498 14421.652735 14216.193448 13946.765749 13607.190297 13152.738010 12601.818011 12044.117799 11493.306193 10913.083178 10291.774847 9620.803637 8895.348080 8162.430242 7488.728444 6881.231489 6323.176573 5775.017269 5192.753952 4571.426253 3927.884357 3395.301414 3005.933137 2617.167335 2163.844774 1738.426372 1413.734715 1148.714389 882.071045 640.380662 484.025312 366.232242 225.514453 115.483754 76.237180 37.985821 -49.976665 -120.673058 -120.856639 -101.059161 -148.650827 -281.314847 -418.239750 -532.707951 -677.812821 -850.926292 -961.573927 -979.969675 -940.100151 -872.328188 -794.296257 -716.394228 -643.138547 -575.645070 -513.674921 -456.612790 -403.879927 -355.069447 -309.953954 -268.440222 -230.509638 -196.163951 -165.384871 -138.109492 -114.219892 -93.543635 -75.861519 -60.919337 -48.441075 -38.141733 -29.738625 -22.960569 -17.554732 -13.291219 -9.965617 -7.399844 -5.441647 -3.963134 -2.858637 -2.042222 -1.445050 -1.012772 -0.703077 -0.483470 -0.329326 -0.222222 -0.148548 -0.098374 -0.064542 -0.041953 -0.027018 -0.017240 -0.010898 -0.006823 -0.004229 -0.002589 -0.001559 -0.000914 -0.000508 -0.000243 -0.000100 -0.000076 -0.000076 -0.000076 15064.010460 15064.010460 15064.010460 15052.540155 14934.259958 14699.162713 14580.116266 14532.169498 14421.652735 14216.193448 13946.765749 13607.190297 13152.738010 12601.818011 12044.117799 11493.306193 10913.083178 10291.774847 9620.803637 8895.348080 8162.430242 7488.728444 6881.231489 6323.176573 5775.017269 5192.753952 4571.426253 3927.884357 3395.301414 3005.933137 2617.167335 2163.844774 1738.426372 1413.734715 1148.714389 882.071045 640.380662 484.025312 366.232242 225.514453 115.483754 76.237180 37.985821 -49.976665 -120.673058 -120.856639 -101.059161 -148.650827 -281.314847 -418.239750 -532.707951 -677.812821 -850.926292 -961.573927 -979.969675 -940.100151 -872.328188 -794.296257 -716.394228 -643.138547 -575.645070 -513.674921 -456.612790 -403.879927 -355.069447 -309.953954 -268.440222 -230.509638 -196.163951 -165.384871 -138.109492 -114.219892 -93.543635 -75.861519 -60.919337 -48.441075 -38.141733 -29.738625 -22.960569 -17.554732 -13.291219 -9.965617 -7.399844 -5.441647 -3.963134 -2.858637 -2.042222 -1.445050 -1.012772 -0.703077 -0.483470 -0.329326 -0.222222 -0.148548 -0.098374 -0.064542 -0.041953 -0.027018 -0.017240 -0.010898 -0.006823 -0.004229 -0.002589 -0.001559 -0.000914 -0.000508 -0.000243 -0.000100 -0.000076 -0.000076 -0.000076 15056.427672 15056.427672 15056.427672 15041.070242 14876.765331 14548.582525 14412.524754 14401.618475 14287.868339 14063.151428 13783.194124 13443.480625 12963.995820 12376.914752 11841.799604 11319.016838 10746.214198 10130.660393 9469.618268 8742.002206 7999.340108 7355.267622 6766.403346 6234.711425 5693.480324 5096.324784 4479.833652 3794.219336 3278.538424 2974.001445 2616.585745 2130.851500 1690.268219 1390.625295 1152.938757 876.259805 608.494833 468.581154 372.847717 209.396502 84.600977 73.249297 54.356172 -59.306920 -148.156785 -128.724708 -78.544954 -114.436278 -287.232094 -428.080073 -518.650648 -673.876716 -886.353697 -992.373458 -1003.430263 -954.068044 -879.683052 -797.645856 -717.732038 -643.628110 -575.796791 -513.697803 -456.588645 -403.839315 -355.023032 -309.905140 -268.390116 -230.458861 -196.113185 -165.334932 -138.061246 -114.174152 -93.501076 -75.822636 -60.884430 -48.410259 -38.114961 -29.715722 -22.941263 -17.538689 -13.278071 -9.954984 -7.391357 -5.434959 -3.957929 -2.854635 -2.039183 -1.442769 -1.011080 -0.701835 -0.482570 -0.328680 -0.221764 -0.148227 -0.098151 -0.064389 -0.041849 -0.026949 -0.017193 -0.010867 -0.006803 -0.004216 -0.002581 -0.001552 -0.000907 -0.000502 -0.000240 -0.000099 -0.000074 -0.000074 -0.000074 14975.191660 14975.191660 14975.191660 14905.293954 14067.939654 12434.776984 12035.258918 12695.797818 12457.507332 12040.272013 11753.582845 11545.606742 10764.075927 9791.664968 9777.863371 9634.338569 8968.229638 8350.490323 7858.120193 7104.856072 6157.435822 5930.110504 5508.915138 5269.526467 4727.109440 3688.546811 3550.537878 1982.308253 1747.233897 2788.047154 2820.667899 1719.298194 925.363824 1082.860529 1321.249820 877.562371 21.027991 269.101189 680.787568 -45.053159 -460.243369 74.685550 482.690656 -226.103284 -632.135748 -240.189715 272.107063 423.351315 -451.727818 -688.070121 -319.635727 -626.357216 -1475.812502 -1467.233215 -1269.512566 -1111.431993 -961.646418 -831.244177 -730.885982 -648.372550 -577.247434 -513.900345 -456.337624 -403.430117 -354.558092 -309.416896 -267.889055 -229.951020 -195.605388 -164.835382 -137.578650 -113.716656 -93.075453 -75.433837 -60.535451 -48.102238 -37.847422 -29.486892 -22.748416 -17.378470 -13.146785 -9.848843 -7.306659 -5.368231 -3.906011 -2.814733 -2.008883 -1.420032 -0.994216 -0.689471 -0.473607 -0.322255 -0.217209 -0.145033 -0.095936 -0.062869 -0.040817 -0.026255 -0.016732 -0.010564 -0.006605 -0.004086 -0.002493 -0.001484 -0.000831 -0.000427 -0.000200 -0.000082 -0.000063 -0.000063 -0.000063 14890.603987 14890.603987 14890.603987 14716.731966 12748.428025 8125.490990 7896.247486 10234.941067 8546.641621 8892.486187 8416.601529 9445.737654 7242.545176 5640.843835 9815.153482 8900.050300 7097.814480 5832.391419 6167.889038 6048.177850 2681.135531 5796.735595 2505.222383 5474.591895 2363.798230 -93.741629 3634.117741 -2267.299412 -1464.177657 4399.666487 3495.484701 -334.184532 -928.725601 509.108006 2028.997282 1214.676104 -1404.148540 -104.930096 1747.308242 -541.058895 -1712.047564 192.991140 1430.883790 -610.108119 -1606.396646 -442.462699 824.020656 1189.294168 -825.942582 -1185.479102 90.105447 -175.325374 -2017.281896 -2098.894920 -1595.785795 -1325.164760 -1100.027451 -886.492310 -751.440280 -655.918788 -579.748286 -514.474012 -456.192871 -403.023488 -354.054176 -308.871984 -267.323107 -229.374394 -195.027476 -164.266339 -137.028819 -113.195530 -92.590843 -74.991405 -60.138589 -47.752200 -37.543611 -29.227238 -22.529765 -17.196961 -12.998181 -9.728803 -7.210954 -5.292899 -3.847453 -2.769771 -1.974774 -1.394462 -0.975270 -0.675595 -0.463558 -0.315060 -0.212114 -0.141465 -0.093464 -0.061174 -0.039668 -0.025484 -0.016220 -0.010227 -0.006385 -0.003942 -0.002394 -0.001395 -0.000685 -0.000297 -0.000141 -0.000062 -0.000049 -0.000049 -0.000049 -0.000238 -0.000112 -0.000054 -0.000047 -0.000047 -0.000047 -0.000141 -0.000077 -0.000041 -0.000036 -0.000036 -0.000036 -0.000058 -0.000040 -0.000026 -0.000024 -0.000024 -0.000024 -0.000026 -0.000020 -0.000015 -0.000014 -0.000014 -0.000014 -0.000012 -0.000010 -0.000009 -0.000009 -0.000009 -0.000009 -0.000006 -0.000006 -0.000005 -0.000005 -0.000005 -0.000005 -0.000003 -0.000003 -0.000003 -0.000003 -0.000003 -0.000003 -0.000002 -0.000002 -0.000002 -0.000002 -0.000002 -0.000002 -0.000001 -0.000001 -0.000001 -0.000001 -0.000001 -0.000001 -0.000000 -0.000000 -0.000000 -0.000000 -0.000000 -0.000000 -0.000000 -0.000000 -0.000000 -0.000000 -0.000000 -0.000000 -0.000000 -0.000000 -0.000000 -0.000000 -0.000000 -0.000000 -0.000000 -0.000000 -0.000000 -0.000000 -0.000000 -0.000000 -0.000000 -0.000000 -0.000000 -0.000000 -0.000000 -0.000000 -0.000000 -0.000000 -0.000000 -0.000000 -0.000000 -0.000000 -0.000000 -0.000000 -0.000000 -0.000000 -0.000000 -0.000000 -0.000000 -0.000000 -0.000000 -0.000000 -0.000000 -0.000000 -0.000000 -0.000000 -0.000000 -0.000000 -0.000000 -0.000000 -0.000000 -0.000000 -0.000000 -0.000000 -0.000000 -0.000000 -0.000000 -0.000000 -0.000000 -0.000000 -0.000000 -0.000000 -0.000000 -0.000000 -0.000000 -0.000000 -0.000000 -0.000000 -0.000000 -0.000000 -0.000000 -0.000000 -0.000000 -0.000000 -0.000000 -0.000000 -0.000000 -0.000000 -0.000000 -0.000000 -0.000000 -0.000000 -0.000000 -0.000000 -0.000000 -0.000000 -0.000000 -0.000000 -0.000000 -0.000000 -0.000000 -0.000000 -0.000000 -0.000000 -0.000000 -0.000000 -0.000000 -0.000000 -0.000000 -0.000000 -0.000000 -0.000000 -0.000000 -0.000000 -0.000000 -0.000000 -0.000000 -0.000000 -0.000000 -0.000000 -0.000000 -0.000000 -0.000000 -0.000000 -0.000000 -0.000000 -0.000000 -0.000000 -0.000000 -0.000000 -0.000000 -0.000000 -0.000000 -0.000000 -0.000000 -0.000000 -0.000000 -0.000000 -0.000000 -0.000000 -0.000000 -0.000000 -0.000000 -0.000000 -0.000000 -0.000000 -0.000000 -0.000000 -0.000000 -0.000000 -0.000000 -0.000000 -0.000000 -0.000000 -0.000000 -0.000000 -0.000000 -0.000000 -0.000000 -0.000000 -0.000000 -0.000000 -0.000000 -0.000000 -0.000000 -0.000000 -0.000000 -0.000000 -0.000000 -0.000000 -0.000000 -0.000000 -0.000000 -0.000000 -0.000000 -0.000000 -0.000000 -0.000000 -0.000000 -0.000000 -0.000000 -0.000000 -0.000000 -0.000000 -0.000000 -0.000000 -0.000000 -0.000000 -0.000000 -0.000000 -0.000000 -0.000000 -0.000000 -0.000000 -0.000000 -0.000000 -0.000000 -0.000000 -0.000000 -0.000000 -0.000000 -0.000000 -0.000000 -0.000000 -0.000000 -0.000000 -0.000000 -0.000000 -0.000000 -0.000000 -0.000000 -0.000000 -0.000000 -0.000000 -0.000000 -0.000000 -0.000000 -0.000000 -0.000000 -0.000000 -0.000000 -0.000000 -0.000000 -0.000000 -0.000000 -0.000000 -0.000000 -0.000000 -0.000000 -0.000000 -0.000000 -0.000000 -0.000000 -0.000000 -0.000000 -0.000000 -0.000000 -0.000000 -0.000000 -0.000000 -0.000000 -0.000000 -0.000000 -0.000000 -0.000000 -0.000000 -0.000000 -0.000000 -0.000000 0.000000 0.000000 0.000000 -0.000000 -0.000000 -0.000000 0.000000 0.000000 0.000000 -0.000000 -0.000000 -0.000000 0.000000 0.000000 0.000000 -0.000000 -0.000000 -0.000000 0.000000 0.000000 0.000000 -0.000000 -0.000000 -0.000000 0.000000 0.000000 0.000000 -0.000000 -0.000000 -0.000000 0.000000 0.000000 0.000000 -0.000000 -0.000000 -0.000000 0.000000 0.000000 0.000000 -0.000000 -0.000000 -0.000000 0.000000 0.000000 0.000000 -0.000000 -0.000000 -0.000000 0.000000 0.000000 0.000000 -0.000000 -0.000000 -0.000000 0.000000 0.000000 0.000000 -0.000000 -0.000000 -0.000000 0.000000 0.000000 0.000000 -0.000000 -0.000000 -0.000000 0.000000 0.000000 0.000000 -0.000000 -0.000000 -0.000000 0.000000 0.000000 0.000000 -0.000000 -0.000000 -0.000000 0.000000 0.000000 0.000000 -0.000000 -0.000000 -0.000000 0.000000 0.000000 0.000000 -0.000000 -0.000000 -0.000000 0.000000 0.000000 0.000000 -0.000000 -0.000000 -0.000000 0.000000 0.000000 0.000000 -0.000000 -0.000000 -0.000000 0.000000 0.000000 0.000000 -0.000000 -0.000000 -0.000000 0.000000 0.000000 0.000000 -0.000000 -0.000000 -0.000000 0.000000 0.000000 0.000000 -0.000000 -0.000000 -0.000000 0.000000 0.000000 0.000000 -0.000000 -0.000000 -0.000000 0.000000 0.000000 0.000000 -0.000000 -0.000000 -0.000000 0.000000 0.000000 0.000000 -0.000000 -0.000000 -0.000000 0.000000 0.000000 0.000000 -0.000000 -0.000000 -0.000000 0.000000 0.000000 0.000000 -0.000000 -0.000000 -0.000000 0.000000 0.000000 0.000000 -0.000000 -0.000000 -0.000000 0.000000 0.000000 0.000000 -0.000000 -0.000000 -0.000000 0.000000 0.000000 0.000000 -0.000000 -0.000000 -0.000000 0.000000 0.000000 0.000000 -0.000000 -0.000000 -0.000000 0.000000 0.000000 0.000000 -0.000000 -0.000000 -0.000000 0.000000 0.000000 0.000000 -0.000000 -0.000000 -0.000000 0.000000 0.000000 0.000000 -0.000000 -0.000000 -0.000000 0.000000 0.000000 0.000000 -0.000000 -0.000000 -0.000000 0.000000 0.000000 0.000000 -0.000000 -0.000000 -0.000000 0.000000 0.000000 0.000000 -0.000000 -0.000000 -0.000000 0.000000 0.000000 0.000000 -0.000000 -0.000000 -0.000000 0.000000 0.000000 0.000000 -0.000000 -0.000000 -0.000000 0.000000 0.000000 0.000000 -0.000000 -0.000000 -0.000000 0.000000 0.000000 0.000000 -0.000000 -0.000000 -0.000000 0.000000 0.000000 0.000000 -0.000000 -0.000000 -0.000000 0.000000 0.000000 0.000000 -0.000000 -0.000000 -0.000000 0.000000 0.000000 0.000000 -0.000000 -0.000000 -0.000000 0.000000 0.000000 0.000000 -0.000000 -0.000000 -0.000000 0.000000 0.000000 0.000000 -0.000000 -0.000000 -0.000000 0.000000 0.000000 0.000000 -0.000000 -0.000000 -0.000000 0.000000 0.000000 0.000000 -0.000000 -0.000000 -0.000000 0.000000 0.000000 0.000000 -0.000000 -0.000000 -0.000000 0.000000 0.000000 0.000000 -0.000000 -0.000000 -0.000000 0.000000 0.000000 0.000000 -0.000000 -0.000000 -0.000000 0.000000 0.000000 0.000000 -0.000000 -0.000000 -0.000000 0.000000 0.000000 0.000000 -0.000000 -0.000000 -0.000000 0.000000 0.000000 0.000000 -0.000000 -0.000000 -0.000000 0.000000 0.000000 0.000000 -0.000000 -0.000000 -0.000000 0.000000 0.000000 0.000000 -0.000000 -0.000000 -0.000000 0.000000 0.000000 0.000000 -0.000000 -0.000000 -0.000000 0.000000 0.000000 0.000000 -0.000000 -0.000000 -0.000000 0.000000 0.000000 0.000000 -0.000000 -0.000000 -0.000000 0.000000 0.000000 0.000000 -0.000000 -0.000000 -0.000000 0.000000 0.000000 0.000000 -0.000000 -0.000000 -0.000000 0.000000 0.000000 0.000000 -0.000000 -0.000000 -0.000000 0.000000 0.000000 0.000000 -0.000000 -0.000000 -0.000000 0.000000 0.000000 0.000000 -0.000000 -0.000000 -0.000000 0.000000 0.000000 0.000000 -0.000000 -0.000000 -0.000000 0.000000 0.000000 0.000000 -0.000000 -0.000000 -0.000000 0.000000 0.000000 0.000000 -0.000000 -0.000000 -0.000000 0.000000 0.000000 0.000000 -0.000000 -0.000000 -0.000000 0.000000 0.000000 0.000000 -0.000000 -0.000000 -0.000000 0.000000 0.000000 0.000000 -0.000000 -0.000000 -0.000000 0.000000 0.000000 0.000000 -0.000000 -0.000000 -0.000000 0.000000 0.000000 0.000000 -0.000000 -0.000000 -0.000000 0.000000 0.000000 0.000000 -0.000000 -0.000000 -0.000000 0.000000 0.000000 0.000000 -0.000000 -0.000000 -0.000000 0.000000 0.000000 0.000000 -0.000000 -0.000000 -0.000000 0.000000 0.000000 0.000000 -0.000000 -0.000000 -0.000000 0.000000 0.000000 0.000000 -0.000000 -0.000000 -0.000000 0.000000 0.000000 0.000000 -0.000000 -0.000000 -0.000000 0.000000 0.000000 0.000000 -0.000000 -0.000000 -0.000000 0.000000 0.000000 0.000000 -0.000000 -0.000000 -0.000000 0.000000 0.000000 0.000000 -0.000000 -0.000000 -0.000000 0.000000 0.000000 0.000000 -0.000000 -0.000000 -0.000000 0.000000 0.000000 0.000000 -0.000000 -0.000000 -0.000000 0.000000 0.000000 0.000000 -0.000000 -0.000000 -0.000000 0.000000 0.000000 0.000000 -0.000000 -0.000000 -0.000000 0.000000 0.000000 0.000000 -0.000000 -0.000000 -0.000000 0.000000 0.000000 0.000000 -0.000000 -0.000000 -0.000000 0.000000 0.000000 0.000000 -0.000000 -0.000000 -0.000000 0.000000 0.000000 0.000000 -0.000000 -0.000000 -0.000000 0.000000 0.000000 0.000000 -0.000000 -0.000000 -0.000000 0.000000 0.000000 0.000000 -0.000000 -0.000000 -0.000000 0.000000 0.000000 0.000000 -0.000000 -0.000000 -0.000000 0.000000 0.000000 0.000000 -0.000000 -0.000000 -0.000000 0.000000 0.000000 0.000000 -0.000000 -0.000000 -0.000000 0.000000 0.000000 0.000000 -0.000000 -0.000000 -0.000000 0.000000 0.000000 0.000000 -0.000000 -0.000000 -0.000000 0.000000 0.000000 0.000000 -0.000000 -0.000000 -0.000000 0.000000 0.000000 0.000000 -0.000000 -0.000000 -0.000000 0.000000 0.000000 0.000000 -0.000000 -0.000000 -0.000000 0.000000 0.000000 0.000000 -0.000000 -0.000000 -0.000000 0.000000 0.000000 0.000000 -0.000000 -0.000000 -0.000000 0.000000 0.000000 0.000000 -0.000000 -0.000000 -0.000000 0.000000 0.000000 0.000000 -0.000000 -0.000000 -0.000000 0.000000 0.000000 0.000000 -0.000000 -0.000000 -0.000000 0.000000 0.000000 0.000000 -0.000000 -0.000000 -0.000000 0.000000 0.000000 0.000000 -0.000000 -0.000000 -0.000000 0.000000 0.000000 0.000000 -0.000000 -0.000000 -0.000000 0.000000 0.000000 0.000000 -0.000000 -0.000000 -0.000000 0.000000 0.000000 0.000000 -0.000000 -0.000000 -0.000000 0.000000 0.000000 0.000000 -0.000000 -0.000000 -0.000000 0.000000 0.000000 0.000000 -0.000000 -0.000000 -0.000000 0.000000 0.000000 0.000000 -0.000000 -0.000000 -0.000000 0.000000 0.000000 0.000000 -0.000000 -0.000000 -0.000000 -0.000000 -0.000000 -0.000000 -0.000000 -0.000000 -0.000000 -0.000000 -0.000000 -0.000000 -0.000000 -0.000000 -0.000000 -0.000000 -0.000000 -0.000000 -0.000000 -0.000000 -0.000000 -0.000000 -0.000000 -0.000000 -0.000000 -0.000000 -0.000000 -0.000000 -0.000000 -0.000000 0.000000 -0.000000 -0.000000 -0.000000 -0.000000 -0.000000 0.000000 -0.000000 -0.000000 -0.000000 -0.000000 -0.000000 0.000000 -0.000000 -0.000000 -0.000000 -0.000000 -0.000000 0.000000 -0.000000 -0.000000 -0.000000 -0.000000 -0.000000 0.000000 -0.000000 -0.000000 -0.000000 -0.000000 -0.000000 0.000000 -0.000000 -0.000000 -0.000000 -0.000000 -0.000000 0.000000 -0.000000 -0.000000 -0.000000 -0.000000 -0.000000 0.000000 -0.000000 -0.000000 -0.000000 -0.000000 -0.000000 0.000000 -0.000000 -0.000000 -0.000000 -0.000000 -0.000000 0.000000 -0.000000 -0.000000 -0.000000 -0.000000 -0.000000 0.000000 -0.000000 -0.000000 -0.000000 -0.000000 -0.000000 0.000000 -0.000000 -0.000000 -0.000000 -0.000000 -0.000000 0.000000 -0.000000 -0.000000 -0.000000 -0.000000 -0.000000 0.000000 -0.000000 -0.000000 -0.000000 -0.000000 -0.000000 0.000000 -0.000000 -0.000000 -0.000000 -0.000000 -0.000000 0.000000 -0.000000 -0.000000 -0.000000 -0.000000 -0.000000 0.000000 -0.000000 -0.000000 -0.000000 -0.000000 -0.000000 0.000000 -0.000000 -0.000000 -0.000000 -0.000000 -0.000000 0.000000 -0.000000 -0.000000 -0.000000 -0.000000 -0.000000 0.000000 -0.000000 -0.000000 -0.000000 -0.000000 -0.000000 0.000000 -0.000000 -0.000000 -0.000000 -0.000000 -0.000000 0.000000 -0.000000 -0.000000 -0.000000 -0.000000 -0.000000 0.000000 -0.000000 -0.000000 -0.000000 -0.000000 -0.000000 0.000000 -0.000000 -0.000000 -0.000000 -0.000000 -0.000000 0.000000 -0.000000 -0.000000 -0.000000 -0.000000 -0.000000 0.000000 -0.000000 -0.000000 -0.000000 -0.000000 -0.000000 0.000000 -0.000000 -0.000000 -0.000000 -0.000000 -0.000000 0.000000 -0.000000 -0.000000 -0.000000 -0.000000 -0.000000 0.000000 -0.000000 -0.000000 -0.000000 -0.000000 -0.000000 0.000000 -0.000000 -0.000000 -0.000000 -0.000000 -0.000000 0.000000 -0.000000 -0.000000 -0.000000 -0.000000 -0.000000 0.000000 -0.000000 -0.000000 -0.000000 -0.000000 -0.000000 0.000000 -0.000000 -0.000000 -0.000000 -0.000000 -0.000000 0.000000 -0.000000 -0.000000 -0.000000 -0.000000 -0.000000 -0.000000 -0.000000 0.000000 0.000000 0.000000 0.000000 13054.976114 13054.976114 13054.976114 13026.906268 12848.527093 13404.944626 14128.995828 14122.852399 13246.149004 13748.738973 14457.568264 11175.633820 10463.974212 10565.532359 9527.363571 9489.505037 7372.060906 7058.707180 6218.806283 5317.970969 5080.539594 3851.203156 2948.737209 1337.897849 1761.815750 2185.071741 1763.388929 1379.672066 1108.880693 896.309089 727.152314 590.287144 477.599450 383.711610 305.221749 239.900077 186.094047 142.378966 107.403736 79.858338 58.498355 42.182990 29.904232 20.800112 14.153486 9.380940 6.016586 3.694298 2.130567 1.109045 0.467159 0.084770 -0.125262 -0.224829 -0.256852 -0.250269 -0.223952 -0.189689 -0.154426 -0.121907 -0.093838 -0.070691 -0.052253 -0.037967 -0.027155 -0.019137 -0.013299 -0.009120 -0.006173 -0.004127 -0.002725 -0.001778 -0.001147 -0.000731 -0.000461 -0.000287 -0.000177 -0.000108 -0.000065 -0.000039 -0.000023 -0.000013 -0.000008 -0.000004 -0.000002 -0.000001 -0.000001 -0.000000 -0.000000 -0.000000 -0.000000 -0.000000 -0.000000 -0.000000 -0.000000 -0.000000 -0.000000 -0.000000 -0.000000 -0.000000 -0.000000 -0.000000 -0.000000 -0.000000 -0.000000 -0.000000 -0.000000 0.000000 -0.000000 -0.000000 -0.000000 12208.322512 12208.322512 12208.322512 12217.927141 12780.193651 14593.931917 14426.493746 13701.585788 12710.392921 12701.544478 12923.046028 10855.459517 10832.720892 10826.219084 9762.678086 8839.695814 7653.811237 6963.595796 6367.445517 5527.929737 4907.498459 3907.077744 3022.995621 2216.077100 2028.679239 1882.189325 1630.622783 1346.895825 1098.804259 895.016029 729.011936 592.937853 480.184756 386.011516 307.229036 241.649672 187.613180 143.683454 108.505480 80.771282 59.240455 42.775371 30.369264 21.159567 14.427258 9.586408 6.168446 3.804691 2.209349 1.164101 0.504704 0.109634 -0.109388 -0.215175 -0.251380 -0.247515 -0.222887 -0.189612 -0.154876 -0.122590 -0.094579 -0.071393 -0.052868 -0.038479 -0.027566 -0.019457 -0.013542 -0.009299 -0.006304 -0.004220 -0.002791 -0.001824 -0.001178 -0.000752 -0.000475 -0.000296 -0.000183 -0.000112 -0.000067 -0.000040 -0.000024 -0.000014 -0.000008 -0.000005 -0.000003 -0.000001 -0.000001 -0.000000 -0.000000 -0.000000 -0.000000 -0.000000 -0.000000 -0.000000 -0.000000 -0.000000 -0.000000 -0.000000 -0.000000 -0.000000 -0.000000 -0.000000 -0.000000 -0.000000 -0.000000 -0.000000 -0.000000 -0.000000 -0.000000 -0.000000 -0.000000 11726.824515 11726.824515 11726.824515 11743.698899 11983.505236 12703.151109 12923.138818 12892.245740 12776.085198 12570.954397 12231.870980 11501.030060 10823.994194 10125.362759 9361.036120 8539.925773 7689.852979 6879.216419 6099.552992 5335.333976 4601.587653 3884.504830 3213.342004 2645.915919 2223.748738 1891.387072 1594.250090 1325.446358 1091.711707 894.941251 731.583056 596.085029 483.154185 388.629122 309.510298 243.640337 189.344919 145.173551 109.766488 81.818138 60.092836 43.456797 30.904900 21.574075 14.743297 9.823841 6.344118 3.932545 2.300717 1.228055 0.548403 0.138645 -0.090806 -0.203824 -0.244901 -0.244211 -0.221565 -0.189457 -0.155348 -0.123347 -0.095414 -0.072190 -0.053570 -0.039066 -0.028037 -0.019825 -0.013821 -0.009508 -0.006456 -0.004329 -0.002868 -0.001877 -0.001214 -0.000776 -0.000491 -0.000307 -0.000190 -0.000116 -0.000070 -0.000042 -0.000025 -0.000015 -0.000008 -0.000005 -0.000003 -0.000002 -0.000001 -0.000000 -0.000000 -0.000000 -0.000000 -0.000000 -0.000000 -0.000000 -0.000000 -0.000000 -0.000000 -0.000000 -0.000000 -0.000000 -0.000000 -0.000000 -0.000000 -0.000000 -0.000000 -0.000000 -0.000000 0.000000 0.000000 0.000000 0.000000 11659.292830 11659.292830 11659.292830 11677.863920 11878.821260 12340.298089 12661.167369 12782.839614 12730.620143 12524.942724 12108.477528 11477.801148 10769.897035 10039.746239 9273.557437 8472.390668 7652.538327 6846.938542 6064.530303 5304.556791 4575.255341 3878.973612 3237.895062 2689.011356 2251.400407 1897.030831 1591.706053 1322.987550 1090.846400 895.067074 732.089914 596.661962 483.688400 389.097344 309.917838 243.996082 189.654666 145.440356 109.992516 82.005973 60.245922 43.579285 31.001255 21.648691 14.800222 9.866634 6.375799 3.955618 2.317219 1.239616 0.556312 0.143903 -0.087433 -0.201757 -0.243717 -0.243603 -0.221317 -0.189422 -0.155428 -0.123480 -0.095562 -0.072332 -0.053696 -0.039171 -0.028122 -0.019891 -0.013872 -0.009545 -0.006483 -0.004349 -0.002882 -0.001887 -0.001221 -0.000781 -0.000494 -0.000309 -0.000191 -0.000117 -0.000071 -0.000042 -0.000025 -0.000015 -0.000008 -0.000005 -0.000003 -0.000002 -0.000001 -0.000000 -0.000000 -0.000000 -0.000000 -0.000000 -0.000000 -0.000000 -0.000000 -0.000000 -0.000000 -0.000000 -0.000000 -0.000000 -0.000000 -0.000000 -0.000000 -0.000000 -0.000000 -0.000000 0.000000 0.000000 0.000000 0.000000 0.000000 11659.292830 11659.292830 11659.292830 11677.863920 11878.821260 12340.298089 12661.167369 12782.839614 12730.620143 12524.942724 12108.477528 11477.801148 10769.897035 10039.746239 9273.557437 8472.390668 7652.538327 6846.938542 6064.530303 5304.556791 4575.255341 3878.973612 3237.895062 2689.011356 2251.400407 1897.030831 1591.706053 1322.987550 1090.846400 895.067074 732.089914 596.661962 483.688400 389.097344 309.917838 243.996082 189.654666 145.440356 109.992516 82.005973 60.245922 43.579285 31.001255 21.648691 14.800222 9.866634 6.375799 3.955618 2.317219 1.239616 0.556312 0.143903 -0.087433 -0.201757 -0.243717 -0.243603 -0.221317 -0.189422 -0.155428 -0.123480 -0.095562 -0.072332 -0.053696 -0.039171 -0.028122 -0.019891 -0.013872 -0.009545 -0.006483 -0.004349 -0.002882 -0.001887 -0.001221 -0.000781 -0.000494 -0.000309 -0.000191 -0.000117 -0.000071 -0.000042 -0.000025 -0.000015 -0.000008 -0.000005 -0.000003 -0.000002 -0.000001 -0.000000 -0.000000 -0.000000 -0.000000 -0.000000 -0.000000 -0.000000 -0.000000 -0.000000 -0.000000 -0.000000 -0.000000 -0.000000 -0.000000 -0.000000 -0.000000 -0.000000 -0.000000 -0.000000 0.000000 0.000000 0.000000 0.000000 0.000000 11659.292830 11659.292830 11659.292830 11677.863920 11878.821260 12340.298089 12661.167369 12782.839614 12730.620143 12524.942724 12108.477528 11477.801148 10769.897035 10039.746239 9273.557437 8472.390668 7652.538327 6846.938542 6064.530303 5304.556791 4575.255341 3878.973612 3237.895062 2689.011356 2251.400407 1897.030831 1591.706053 1322.987550 1090.846400 895.067074 732.089914 596.661962 483.688400 389.097344 309.917838 243.996082 189.654666 145.440356 109.992516 82.005973 60.245922 43.579285 31.001255 21.648691 14.800222 9.866634 6.375799 3.955618 2.317219 1.239616 0.556312 0.143903 -0.087433 -0.201757 -0.243717 -0.243603 -0.221317 -0.189422 -0.155428 -0.123480 -0.095562 -0.072332 -0.053696 -0.039171 -0.028122 -0.019891 -0.013872 -0.009545 -0.006483 -0.004349 -0.002882 -0.001887 -0.001221 -0.000781 -0.000494 -0.000309 -0.000191 -0.000117 -0.000071 -0.000042 -0.000025 -0.000015 -0.000008 -0.000005 -0.000003 -0.000002 -0.000001 -0.000000 -0.000000 -0.000000 -0.000000 -0.000000 -0.000000 -0.000000 -0.000000 -0.000000 -0.000000 -0.000000 -0.000000 -0.000000 -0.000000 -0.000000 -0.000000 -0.000000 -0.000000 -0.000000 0.000000 0.000000 0.000000 0.000000 0.000000 14897.781184 14897.781184 14897.781184 14710.069430 12442.809971 7468.618394 7705.687865 10550.706741 8054.558931 8492.794457 7832.512041 9202.929755 6995.786304 5219.840340 10461.225766 9115.511646 6770.656070 5527.490157 6208.160582 6049.532655 1709.277859 6546.505174 1610.071766 5292.066205 858.639615 -1579.004645 3864.137472 -3674.462560 -2270.589925 5201.654779 3514.677509 -1227.303613 -1434.799268 418.200178 2194.640766 1320.555705 -1610.205776 -165.410365 1919.731496 -615.318843 -1918.321497 203.660459 1531.793508 -680.624152 -1737.690471 -467.491356 867.006189 1233.956731 -873.378204 -1232.388198 141.335147 -46.861940 -1973.787745 -2132.505136 -1620.705191 -1343.938693 15127.543192 15127.543192 15127.543192 14821.176232 11167.445251 8288.693685 9244.952110 7228.673991 11669.350430 6616.856753 8357.727987 12557.490271 11189.562556 8974.706981 10120.360292 12302.277634 6059.260772 9609.747506 9593.465360 16175.691522 8963.616024 10537.577192 15013.783468 14372.677946 10189.870890 9809.676288 9747.717211 9888.417178 9681.399885 9345.201912 10249.162008 9352.160938 9141.397655 10491.110936 8414.833883 10740.987472 9229.625968 9094.230556 10416.418276 8139.610309 8566.336339 7604.786705 9328.975138 5381.047624 5271.265495 6628.923082 6377.888906 5856.499664 6122.176978 6779.282021 8867.752073 6551.276603 4940.441153 -555.562307 110.763047 -1495.497343 15766.309379 15766.309379 15766.309379 15441.360444 12192.131873 10502.509598 8642.688112 12457.723457 12437.598704 11205.275403 10048.726265 10994.918501 10680.569633 10981.366722 11400.276984 10009.736659 10084.198024 13642.977627 9415.443094 9594.533093 11931.792721 8632.111200 10998.652365 10446.363445 10270.829210 11273.873369 10928.004496 8916.517086 8243.541161 10428.013808 9154.251204 6675.386035 6672.609058 8050.513227 6688.694170 6208.449591 8451.576110 5266.825736 9396.487179 6264.420465 6149.978151 6903.287325 6202.905934 6249.559990 5705.535811 5224.813757 4726.544286 4470.360603 3774.876281 3737.841065 -4.923801 2458.060607 -241.261244 120.933100 36.502974 160.025084 16594.757281 16594.757281 16594.757281 16305.107635 13239.391644 7063.885749 11408.122646 11781.524879 11445.048352 12318.304338 10507.605260 12551.688441 10482.958546 10294.787139 11697.668342 9940.954094 8361.065873 11941.066713 12147.299274 10846.146992 10394.334208 10775.800431 10447.483235 7851.609604 8236.916170 9095.139935 9209.378616 12526.539411 9776.906451 7287.761303 8164.618322 8412.771478 7285.056079 6326.650577 7573.108234 5918.493529 5083.420338 6989.684100 8371.767340 4024.474495 3825.742849 5829.497549 8462.780633 4979.285616 6345.096343 2011.085932 3328.302545 5445.298213 4697.251740 5418.774963 2978.445189 1583.455942 -1009.626488 993.397255 -529.775375 -2947.392808 17515.480412 17515.480412 17515.480412 17419.592106 16039.387185 12239.011967 11506.167263 10916.565816 12411.330056 12063.078421 11970.760450 11171.778548 11976.122852 11833.543056 11907.589405 10471.177082 10990.456793 9540.466285 7855.660106 11723.860964 9554.954906 10507.550543 8973.575268 9878.537200 8636.714592 7240.267727 9237.128264 10501.381171 7932.113476 7995.461416 9106.639350 8407.679827 9715.496752 7967.140806 6908.782813 6991.215411 6382.444245 7398.601940 4069.526071 4277.934172 5067.459001 4407.725137 6098.193232 5594.899479 4104.510085 3333.829374 3965.638830 4699.114397 1875.124332 -67.845875 -743.979282 3274.524929 666.572897 1544.122579 -431.355172 883.226