<VTKFile type="PolyData">
<PolyData>
<Piece NumberOfPoints="8632" NumberOfVerts="8632" NumberOfLines="0" NumberOfStrips="0" NumberOfPolys="0">
<PointData>
<DataArray type="Float64" Name="Pressure" format="ascii">
 11074.723079 11074.723079 11074.723079 11118.199712 11597.858777 12791.195276 13908.761506 14811.201335 15403.282372 15699.512827 15781.251828 15748.329619 15651.334789 15486.496464 15248.338690 14946.572360 14599.925461 14220.593891 13808.638972 13361.559063 12882.537799 12379.255787 11860.314449 11331.510143 10794.312910 10248.112045 9695.275529 9137.639531 8573.977333 8003.033937 7427.320403 6851.420589 6281.577754 5710.607374 5132.018026 4564.730726 4007.675655 3468.962546 2989.062216 2565.012538 2138.177170 1716.199648 1260.830611 808.857314 428.267455 68.690419 -143.693154 -155.413697 -143.640263 -228.368991 -311.242623 -361.205024 -474.298588 -646.979655 -776.082217 -825.002769 -812.702334 -762.800443 -692.584017 -612.846265 -530.442271 -450.002999 -374.631593 -306.269154 -245.958485 -194.060068 -150.429279 -114.561574 -85.713485 -63.004765 -45.503527 -32.293938 -22.525745 -15.445942 -10.414387 -6.906393 -4.505920 -2.892977 -1.828288 -1.137582 -0.697024 -0.420645 -0.250063 -0.146452 -0.084507 -0.048045 -0.026915 -0.014856 -0.008079 -0.004329 -0.002285 -0.001188 -0.000609 -0.000307 -0.000153 -0.000075 -0.000036 -0.000017 -0.000008 -0.000004 -0.000002 -0.000001 -0.000000 -0.000000 -0.000000 -0.000000 -0.000000 -0.000000 -0.000000 -0.000000 -0.000000 11074.723079 11074.723079 11074.723079 11118.199712 11597.858777 12791.195276 13908.761506 14811.201335 15403.282372 15699.512827 15781.251828 15748.329619 15651.334789 15486.496464 15248.338690 14946.572360 14599.925461 14220.593891 13808.638972 13361.559063 12882.537799 12379.255787 11860.314449 11331.510143 10794.312910 10248.112045 9695.275529 9137.639531 8573.977333 8003.033937 7427.320403 6851.420589 6281.577754 5710.607374 5132.018026 4564.730726 4007.675655 3468.962546 2989.062216 2565.012538 2138.177170 1716.199648 1260.830611 808.857314 428.267455 68.690419 -143.693154 -155.413697 -143.640263 -228.368991 -311.242623 -361.205024 -474.298588 -646.979655 -776.082217 -825.002769 -812.702334 -762.800443 -692.584017 -612.846265 -530.442271 -450.002999 -374.631593 -306.269154 -245.958485 -194.060068 -150.429279 -114.561574 -85.713485 -63.004765 -45.503527 -32.293938 -22.525745 -15.445942 -10.414387 -6.906393 -4.505920 -2.892977 -1.828288 -1.137582 -0.697024 -0.420645 -0.250063 -0.146452 -0.084507 -0.048045 -0.026915 -0.014856 -0.008079 -0.004329 -0.002285 -0.001188 -0.000609 -0.000307 -0.000153 -0.000075 -0.000036 -0.000017 -0.000008 -0.000004 -0.000002 -0.000001 -0.000000 -0.000000 -0.000000 -0.000000 -0.000000 -0.000000 -0.000000 -0.000000 -0.000000 11074.723079 11074.723079 11074.723079 11118.199712 11597.858777 12791.195276 13908.761506 14811.201335 15403.282372 15699.512827 15781.251828 15748.329619 15651.334789 15486.496464 15248.338690 14946.572360 14599.925461 14220.593891 13808.638972 13361.559063 12882.537799 12379.255787 11860.314449 11331.510143 10794.312910 10248.112045 9695.275529 9137.639531 8573.977333 8003.033937 7427.320403 6851.420589 6281.577754 5710.607374 5132.018026 4564.730726 4007.675655 3468.962546 2989.062216 2565.012538 2138.177170 1716.199648 1260.830611 808.857314 428.267455 68.690419 -143.693154 -155.413697 -143.640263 -228.368991 -311.242623 -361.205024 -474.298588 -646.979655 -776.082217 -825.002769 -812.702334 -762.800443 -692.584017 -612.846265 -530.442271 -450.002999 -374.631593 -306.269154 -245.958485 -194.060068 -150.429279 -114.561574 -85.713485 -63.004765 -45.503527 -32.293938 -22.525745 -15.445942 -10.414387 -6.906393 -4.505920 -2.892977 -1.828288 -1.137582 -0.697024 -0.420645 -0.250063 -0.146452 -0.084507 -0.048045 -0.026915 -0.014856 -0.008079 -0.004329 -0.002285 -0.001188 -0.000609 -0.000307 -0.000153 -0.000075 -0.000036 -0.000017 -0.000008 -0.000004 -0.000002 -0.000001 -0.000000 -0.000000 -0.000000 -0.000000 -0.000000 -0.000000 -0.000000 -0.000000 -0.000000 11176.166424 11176.166424 11176.166424 11218.616131 11708.658873 12945.349772 14106.432780 15042.666686 15630.265649 15895.586252 15940.540302 15898.835634 15810.300277 15648.388964 15407.870364 15101.878634 14755.369808 14383.434072 13980.899957 13539.802680 13064.710666 12565.095668 12049.588456 11523.021804 10983.704942 10427.830923 9859.085280 9281.398638 8696.467755 8103.617882 7507.195167 6912.298897 6327.635666 5748.368899 5151.682192 4583.394570 4019.664705 3463.897280 2982.035114 2579.253184 2129.968504 1716.827004 1231.201463 739.645057 388.375612 -19.225703 -242.331867 -180.918393 -113.674321 -246.060773 -331.360761 -341.887368 -446.962605 -665.175397 -803.057609 -843.973903 -822.903310 -767.533641 -694.594670 -613.665801 -530.740099 -450.066610 -374.587934 -306.177299 -245.847699 -193.945811 -150.320139 -114.462368 -85.626697 -62.931298 -45.443169 -32.245717 -22.488226 -15.417479 -10.393308 -6.891137 -4.495122 -2.885494 -1.823207 -1.134199 -0.694814 -0.419228 -0.249170 -0.145899 -0.084170 -0.047844 -0.026796 -0.014787 -0.008040 -0.004307 -0.002273 -0.001182 -0.000605 -0.000305 -0.000152 -0.000074 -0.000036 -0.000017 -0.000008 -0.000004 -0.000002 -0.000001 -0.000000 -0.000000 -0.000000 -0.000000 -0.000000 -0.000000 -0.000000 -0.000000 -0.000000 12315.278580 12315.278580 12315.278580 12376.319427 13078.688437 14702.232385 16364.164191 17649.956227 18169.451102 17989.620250 17494.269627 17485.225528 17683.118861 17592.578221 17371.784861 16985.441283 16598.025149 16238.497930 15877.219502 15379.885309 14869.569756 14392.820464 13904.213100 13467.378650 12967.337690 12359.354450 11668.748027 10860.074819 10039.311373 9183.269729 8375.231998 7554.254147 6767.660629 6214.922345 5295.216327 4793.432736 4111.652985 3370.231941 2713.385577 2888.961007 1734.461299 1973.366723 785.790204 -466.324927 536.257203 -1294.685262 -1641.264601 -318.124503 564.369336 -633.754329 -777.148553 129.371580 -63.252755 -1033.704383 -1158.970859 -1065.026093 -935.200106 -814.805217 -714.369998 -621.653616 -533.621283 -450.658309 -374.130419 -305.248443 -244.734546 -192.800452 -149.227333 -113.469737 -84.758818 -62.197019 -44.840226 -31.764276 -22.113856 -15.133626 -10.183219 -6.739192 -4.387634 -2.811052 -1.772693 -1.100587 -0.672870 -0.405161 -0.240312 -0.140418 -0.080835 -0.045848 -0.025622 -0.014107 -0.007653 -0.004090 -0.002153 -0.001117 -0.000571 -0.000287 -0.000142 -0.000069 -0.000033 -0.000016 -0.000007 -0.000003 -0.000002 -0.000001 -0.000000 -0.000000 -0.000000 -0.000000 -0.000000 -0.000000 -0.000000 -0.000000 -0.000000 14083.458145 14083.458145 14083.458145 14209.749888 15439.434712 16981.662667 19956.089948 22270.796178 22074.516582 20811.979070 18510.370215 19816.251104 20677.319866 20561.713566 20604.543334 19853.056016 19188.765828 18668.063965 17999.234589 16849.938900 16032.334381 15375.939387 14734.357434 14350.020531 13926.278382 13720.064640 13084.909834 12354.644533 11458.278488 10484.999922 9278.085021 8725.075535 7156.340380 7460.779684 4849.177254 5516.999744 4119.107750 2515.760400 1281.452295 4336.816117 -1115.192620 3188.412731 -79.830686 -3971.017363 1944.507444 -4197.226275 -4465.643073 -219.545669 1657.652169 -1565.206640 -1633.455400 906.264859 184.412552 -1866.751696 -1719.347615 -1369.538041 -1119.589845 -890.168386 -744.280942 -633.700809 -538.117119 -451.837070 -373.817588 -304.274511 -243.499296 -191.507988 -147.987213 -112.341566 -83.772644 -61.363538 -44.156861 -31.219593 -21.691140 -14.813786 -9.947007 -6.568735 -4.267323 -2.727922 -1.716413 -1.063227 -0.648535 -0.389599 -0.230536 -0.134382 -0.077172 -0.043662 -0.024338 -0.013366 -0.007231 -0.003854 -0.002024 -0.001047 -0.000533 -0.000267 -0.000132 -0.000064 -0.000031 -0.000015 -0.000007 -0.000003 -0.000001 -0.000001 -0.000000 -0.000000 -0.000000 -0.000000 -0.000000 -0.000000 -0.000000 -0.000000 -0.000000 -0.000000 -0.000000 -0.000000 -0.000000 -0.000000 -0.000000 -0.000000 -0.000000 -0.000000 -0.000000 -0.000000 -0.000000 -0.000000 -0.000000 -0.000000 -0.000000 -0.000000 -0.000000 -0.000000 -0.000000 -0.000000 -0.000000 -0.000000 -0.000000 -0.000000 -0.000000 -0.000000 -0.000000 -0.000000 -0.000000 -0.000000 -0.000000 -0.000000 -0.000000 -0.000000 -0.000000 -0.000000 -0.000000 -0.000000 -0.000000 -0.000000 -0.000000 -0.000000 -0.000000 -0.000000 -0.000000 -0.000000 -0.000000 -0.000000 -0.000000 -0.000000 -0.000000 -0.000000 -0.000000 -0.000000 -0.000000 -0.000000 -0.000000 -0.000000 -0.000000 -0.000000 -0.000000 -0.000000 -0.000000 -0.000000 -0.000000 -0.000000 -0.000000 -0.000000 -0.000000 -0.000000 -0.000000 -0.000000 -0.000000 -0.000000 -0.000000 -0.000000 -0.000000 -0.000000 -0.000000 -0.000000 -0.000000 -0.000000 -0.000000 -0.000000 -0.000000 -0.000000 -0.000000 -0.000000 -0.000000 -0.000000 -0.000000 -0.000000 -0.000000 -0.000000 -0.000000 -0.000000 -0.000000 -0.000000 -0.000000 -0.000000 -0.000000 -0.000000 -0.000000 -0.000000 -0.000000 -0.000000 -0.000000 -0.000000 -0.000000 -0.000000 -0.000000 -0.000000 -0.000000 -0.000000 -0.000000 -0.000000 -0.000000 -0.000000 -0.000000 -0.000000 -0.000000 -0.000000 -0.000000 -0.000000 -0.000000 -0.000000 -0.000000 -0.000000 -0.000000 -0.000000 -0.000000 -0.000000 -0.000000 -0.000000 -0.000000 -0.000000 -0.000000 -0.000000 -0.000000 -0.000000 -0.000000 -0.000000 -0.000000 -0.000000 -0.000000 -0.000000 -0.000000 -0.000000 -0.000000 -0.000000 -0.000000 -0.000000 -0.000000 -0.000000 -0.000000 -0.000000 -0.000000 -0.000000 -0.000000 -0.000000 -0.000000 -0.000000 -0.000000 -0.000000 -0.000000 -0.000000 -0.000000 -0.000000 -0.000000 -0.000000 -0.000000 -0.000000 -0.000000 -0.000000 -0.000000 -0.000000 -0.000000 -0.000000 -0.000000 -0.000000 -0.000000 -0.000000 -0.000000 -0.000000 -0.000000 -0.000000 -0.000000 -0.000000 -0.000000 -0.000000 -0.000000 -0.000000 -0.000000 -0.000000 -0.000000 -0.000000 -0.000000 -0.000000 -0.000000 -0.000000 -0.000000 -0.000000 -0.000000 -0.000000 -0.000000 -0.000000 -0.000000 -0.000000 -0.000000 -0.000000 -0.000000 -0.000000 -0.000000 -0.000000 -0.000000 -0.000000 -0.000000 -0.000000 -0.000000 -0.000000 -0.000000 -0.000000 -0.000000 -0.000000 -0.000000 -0.000000 -0.000000 -0.000000 -0.000000 -0.000000 -0.000000 -0.000000 -0.000000 -0.000000 -0.000000 -0.000000 -0.000000 -0.000000 -0.000000 -0.000000 -0.000000 -0.000000 -0.000000 -0.000000 -0.000000 -0.000000 -0.000000 -0.000000 -0.000000 -0.000000 -0.000000 -0.000000 -0.000000 -0.000000 -0.000000 -0.000000 -0.000000 -0.000000 -0.000000 -0.000000 -0.000000 -0.000000 -0.000000 -0.000000 -0.000000 -0.000000 -0.000000 -0.000000 -0.000000 -0.000000 -0.000000 -0.000000 -0.000000 -0.000000 -0.000000 -0.000000 -0.000000 -0.000000 0.000000 0.000000 0.000000 -0.000000 -0.000000 -0.000000 0.000000 0.000000 0.000000 -0.000000 -0.000000 -0.000000 0.000000 0.000000 0.000000 -0.000000 -0.000000 -0.000000 0.000000 0.000000 0.000000 -0.000000 -0.000000 -0.000000 0.000000 0.000000 0.000000 -0.000000 -0.000000 -0.000000 0.000000 0.000000 0.000000 -0.000000 -0.000000 -0.000000 0.000000 0.000000 0.000000 -0.000000 -0.000000 -0.000000 0.000000 0.000000 0.000000 -0.000000 -0.000000 -0.000000 0.000000 0.000000 0.000000 -0.000000 -0.000000 -0.000000 0.000000 0.000000 0.000000 -0.000000 -0.000000 -0.000000 0.000000 0.000000 0.000000 -0.000000 -0.000000 -0.000000 0.000000 0.000000 0.000000 -0.000000 -0.000000 -0.000000 0.000000 0.000000 0.000000 -0.000000 -0.000000 -0.000000 0.000000 0.000000 0.000000 -0.000000 -0.000000 -0.000000 0.000000 0.000000 0.000000 -0.000000 -0.000000 -0.000000 0.000000 0.000000 0.000000 -0.000000 -0.000000 -0.000000 0.000000 0.000000 0.000000 -0.000000 -0.000000 -0.000000 0.000000 0.000000 0.000000 -0.000000 -0.000000 -0.000000 0.000000 0.000000 0.000000 -0.000000 -0.000000 -0.000000 0.000000 0.000000 0.000000 -0.000000 -0.000000 -0.000000 0.000000 0.000000 0.000000 -0.000000 -0.000000 -0.000000 0.000000 0.000000 0.000000 -0.000000 -0.000000 -0.000000 0.000000 0.000000 0.000000 -0.000000 -0.000000 -0.000000 0.000000 0.000000 0.000000 -0.000000 -0.000000 -0.000000 0.000000 0.000000 0.000000 -0.000000 -0.000000 -0.000000 0.000000 0.000000 0.000000 -0.000000 -0.000000 -0.000000 0.000000 0.000000 0.000000 -0.000000 -0.000000 -0.000000 0.000000 0.000000 0.000000 -0.000000 -0.000000 -0.000000 0.000000 0.000000 0.000000 -0.000000 -0.000000 -0.000000 0.000000 0.000000 0.000000 -0.000000 -0.000000 -0.000000 0.000000 0.000000 0.000000 -0.000000 -0.000000 -0.000000 0.000000 0.000000 0.000000 -0.000000 -0.000000 -0.000000 0.000000 0.000000 0.000000 -0.000000 -0.000000 -0.000000 0.000000 0.000000 0.000000 -0.000000 -0.000000 -0.000000 0.000000 0.000000 0.000000 -0.000000 -0.000000 -0.000000 0.000000 0.000000 0.000000 -0.000000 -0.000000 -0.000000 0.000000 0.000000 0.000000 -0.000000 -0.000000 -0.000000 0.000000 0.000000 0.000000 -0.000000 -0.000000 -0.000000 0.000000 0.000000 0.000000 -0.000000 -0.000000 -0.000000 0.000000 0.000000 0.000000 -0.000000 -0.000000 -0.000000 0.000000 0.000000 0.000000 -0.000000 -0.000000 -0.000000 0.000000 0.000000 0.000000 -0.000000 -0.000000 -0.000000 0.000000 0.000000 0.000000 -0.000000 -0.000000 -0.000000 0.000000 0.000000 0.000000 -0.000000 -0.000000 -0.000000 0.000000 0.000000 0.000000 -0.000000 -0.000000 -0.000000 0.000000 0.000000 0.000000 -0.000000 -0.000000 -0.000000 0.000000 0.000000 0.000000 -0.000000 -0.000000 -0.000000 0.000000 0.000000 0.000000 -0.000000 -0.000000 -0.000000 0.000000 0.000000 0.000000 -0.000000 -0.000000 -0.000000 0.000000 0.000000 0.000000 -0.000000 -0.000000 -0.000000 0.000000 0.000000 0.000000 -0.000000 -0.000000 -0.000000 0.000000 0.000000 0.000000 -0.000000 -0.000000 -0.000000 0.000000 0.000000 0.000000 -0.000000 -0.000000 -0.000000 0.000000 0.000000 0.000000 -0.000000 -0.000000 -0.000000 0.000000 0.000000 0.000000 -0.000000 -0.000000 -0.000000 0.000000 0.000000 0.000000 -0.000000 -0.000000 -0.000000 0.000000 0.000000 0.000000 -0.000000 -0.000000 -0.000000 0.000000 0.000000 0.000000 -0.000000 -0.000000 -0.000000 0.000000 0.000000 0.000000 -0.000000 -0.000000 -0.000000 0.000000 0.000000 0.000000 -0.000000 -0.000000 -0.000000 0.000000 0.000000 0.000000 -0.000000 -0.000000 -0.000000 0.000000 0.000000 0.000000 -0.000000 -0.000000 -0.000000 0.000000 0.000000 0.000000 -0.000000 -0.000000 -0.000000 0.000000 0.000000 0.000000 -0.000000 -0.000000 -0.000000 0.000000 0.000000 0.000000 -0.000000 -0.000000 -0.000000 0.000000 0.000000 0.000000 -0.000000 -0.000000 -0.000000 0.000000 0.000000 0.000000 -0.000000 -0.000000 -0.000000 0.000000 0.000000 0.000000 -0.000000 -0.000000 -0.000000 0.000000 0.000000 0.000000 -0.000000 -0.000000 -0.000000 0.000000 0.000000 0.000000 -0.000000 -0.000000 -0.000000 0.000000 0.000000 0.000000 -0.000000 -0.000000 -0.000000 0.000000 0.000000 0.000000 -0.000000 -0.000000 -0.000000 0.000000 0.000000 0.000000 -0.000000 -0.000000 -0.000000 0.000000 0.000000 0.000000 -0.000000 -0.000000 -0.000000 0.000000 0.000000 0.000000 -0.000000 -0.000000 -0.000000 0.000000 0.000000 0.000000 -0.000000 -0.000000 -0.000000 0.000000 0.000000 0.000000 -0.000000 -0.000000 -0.000000 0.000000 0.000000 0.000000 -0.000000 -0.000000 -0.000000 0.000000 0.000000 0.000000 -0.000000 -0.000000 -0.000000 0.000000 0.000000 0.000000 -0.000000 -0.000000 -0.000000 0.000000 0.000000 0.000000 -0.000000 -0.000000 -0.000000 0.000000 0.000000 0.000000 -0.000000 -0.000000 -0.000000 0.000000 0.000000 0.000000 -0.000000 -0.000000 -0.000000 0.000000 0.000000 0.000000 -0.000000 -0.000000 -0.000000 0.000000 0.000000 0.000000 -0.000000 -0.000000 -0.000000 0.000000 0.000000 0.000000 -0.000000 -0.000000 -0.000000 0.000000 0.000000 0.000000 -0.000000 -0.000000 -0.000000 0.000000 0.000000 0.000000 -0.000000 -0.000000 -0.000000 0.000000 0.000000 0.000000 -0.000000 -0.000000 -0.000000 0.000000 0.000000 0.000000 -0.000000 -0.000000 -0.000000 0.000000 0.000000 0.000000 -0.000000 -0.000000 -0.000000 0.000000 0.000000 0.000000 -0.000000 -0.000000 -0.000000 0.000000 0.000000 0.000000 -0.000000 -0.000000 -0.000000 0.000000 0.000000 0.000000 -0.000000 -0.000000 -0.000000 0.000000 0.000000 0.000000 -0.000000 -0.000000 -0.000000 0.000000 0.000000 0.000000 -0.000000 -0.000000 -0.000000 0.000000 0.000000 0.000000 -0.000000 -0.000000 -0.000000 0.000000 0.000000 0.000000 -0.000000 -0.000000 -0.000000 0.000000 0.000000 0.000000 -0.000000 -0.000000 -0.000000 0.000000 0.000000 0.000000 -0.000000 -0.000000 -0.000000 0.000000 0.000000 0.000000 -0.000000 -0.000000 -0.000000 0.000000 0.000000 0.000000 -0.000000 -0.000000 -0.000000 0.000000 0.000000 0.000000 -0.000000 -0.000000 -0.000000 0.000000 0.000000 0.000000 -0.000000 -0.000000 -0.000000 0.000000 0.000000 0.000000 -0.000000 -0.000000 -0.000000 0.000000 0.000000 0.000000 -0.000000 -0.000000 -0.000000 0.000000 0.000000 0.000000 -0.000000 -0.000000 -0.000000 0.000000 0.000000 0.000000 -0.000000 -0.000000 -0.000000 0.000000 0.000000 0.000000 -0.000000 -0.000000 -0.000000 0.000000 0.000000 0.000000 -0.000000 -0.000000 -0.000000 0.000000 0.000000 0.000000 -0.000000 -0.000000 -0.000000 0.000000 0.000000 0.000000 -0.000000 -0.000000 -0.000000 0.000000 0.000000 0.000000 -0.000000 -0.000000 -0.000000 0.000000 0.000000 0.000000 -0.000000 -0.000000 -0.000000 -0.000000 -0.000000 -0.000000 -0.000000 -0.000000 -0.000000 -0.000000 -0.000000 -0.000000 -0.000000 -0.000000 -0.000000 -0.000000 -0.000000 -0.000000 -0.000000 -0.000000 -0.000000 -0.000000 -0.000000 -0.000000 -0.000000 -0.000000 -0.000000 -0.000000 -0.000000 -0.000000 0.000000 -0.000000 -0.000000 -0.000000 -0.000000 -0.000000 0.000000 -0.000000 -0.000000 -0.000000 -0.000000 -0.000000 0.000000 -0.000000 -0.000000 -0.000000 -0.000000 -0.000000 0.000000 -0.000000 -0.000000 -0.000000 -0.000000 -0.000000 0.000000 -0.000000 -0.000000 -0.000000 -0.000000 -0.000000 0.000000 -0.000000 -0.000000 -0.000000 -0.000000 -0.000000 0.000000 -0.000000 -0.000000 -0.000000 -0.000000 -0.000000 0.000000 -0.000000 -0.000000 -0.000000 -0.000000 -0.000000 0.000000 -0.000000 -0.000000 -0.000000 -0.000000 -0.000000 0.000000 -0.000000 -0.000000 -0.000000 -0.000000 -0.000000 0.000000 -0.000000 -0.000000 -0.000000 -0.000000 -0.000000 0.000000 -0.000000 -0.000000 -0.000000 -0.000000 -0.000000 0.000000 -0.000000 -0.000000 -0.000000 -0.000000 -0.000000 0.000000 -0.000000 -0.000000 -0.000000 -0.000000 -0.000000 0.000000 -0.000000 -0.000000 -0.000000 -0.000000 -0.000000 0.000000 -0.000000 -0.000000 -0.000000 -0.000000 -0.000000 0.000000 -0.000000 -0.000000 -0.000000 -0.000000 -0.000000 0.000000 -0.000000 -0.000000 -0.000000 -0.000000 -0.000000 0.000000 -0.000000 -0.000000 -0.000000 -0.000000 -0.000000 0.000000 -0.000000 -0.000000 -0.000000 -0.000000 -0.000000 0.000000 -0.000000 -0.000000 -0.000000 -0.000000 -0.000000 0.000000 -0.000000 -0.000000 -0.000000 -0.000000 -0.000000 0.000000 -0.000000 -0.000000 -0.000000 -0.000000 -0.000000 0.000000 -0.000000 -0.000000 -0.000000 -0.000000 -0.000000 0.000000 -0.000000 -0.000000 -0.000000 -0.000000 -0.000000 0.000000 -0.000000 -0.000000 -0.000000 -0.000000 -0.000000 0.000000 -0.000000 -0.000000 -0.000000 -0.000000 -0.000000 0.000000 -0.000000 -0.000000 -0.000000 -0.000000 -0.000000 0.000000 -0.000000 -0.000000 -0.000000 -0.000000 -0.000000 0.000000 -0.000000 -0.000000 -0.000000 -0.000000 -0.000000 0.000000 -0.000000 -0.000000 -0.000000 -0.000000 -0.000000 0.000000 -0.000000 -0.000000 -0.000000 -0.000000 -0.000000 0.000000 -0.000000 -0.000000 -0.000000 -0.000000 -0.000000 0.000000 -0.000000 -0.000000 -0.000000 -0.000000 -0.000000 -0.000000 -0.000000 0.000000 0.000000 0.000000 0.000000 9392.246498 9392.246498 9392.246498 9350.741952 8954.853433 7949.358584 7290.390217 7175.157466 7849.187852 8134.144175 5328.833749 6851.799483 5482.451391 5624.897943 4719.266736 5158.033102 3158.246345 4081.977611 3252.867616 2744.796168 2282.749518 1740.332235 1691.808615 1270.879808 -1108.633224 -1504.565066 -324.333288 237.174234 365.035412 330.584163 247.061924 164.712840 100.689467 56.760995 29.027179 12.601002 3.413015 -1.401467 -3.674697 -4.511788 -4.558882 -4.191318 -3.629814 -3.006271 -2.399190 -1.852802 -1.388243 -1.011038 -0.716699 -0.495066 -0.333550 -0.219379 -0.140957 -0.088538 -0.054398 -0.032710 -0.019259 -0.011109 -0.006279 -0.003480 -0.001891 -0.001009 -0.000528 -0.000271 -0.000137 -0.000068 -0.000033 -0.000016 -0.000007 -0.000003 -0.000002 -0.000001 -0.000000 -0.000000 -0.000000 -0.000000 -0.000000 -0.000000 -0.000000 -0.000000 -0.000000 -0.000000 -0.000000 -0.000000 -0.000000 -0.000000 -0.000000 -0.000000 -0.000000 -0.000000 -0.000000 -0.000000 -0.000000 -0.000000 -0.000000 -0.000000 -0.000000 -0.000000 -0.000000 -0.000000 -0.000000 -0.000000 -0.000000 -0.000000 -0.000000 -0.000000 -0.000000 0.000000 -0.000000 -0.000000 -0.000000 8900.781225 8900.781225 8900.781225 8880.030294 8767.410608 8308.081168 7552.115794 6766.296702 6887.685832 7238.848703 6306.895032 6825.362288 6414.223114 6044.783541 5301.625325 5196.305404 4574.356859 4221.168133 3712.279912 3165.424440 2684.560931 2254.792986 1832.483253 1518.220087 657.471367 318.730802 373.326142 460.895491 439.918011 354.316135 254.913910 168.235177 103.034067 58.548571 30.337483 13.491381 3.978550 -1.060279 -3.476646 -4.400889 -4.500127 -4.163890 -3.621374 -3.009211 -2.408535 -1.865164 -1.401327 -1.023376 -0.727472 -0.503934 -0.340505 -0.224609 -0.144747 -0.091191 -0.056198 -0.033896 -0.020020 -0.011583 -0.006568 -0.003652 -0.001991 -0.001065 -0.000559 -0.000288 -0.000146 -0.000072 -0.000035 -0.000017 -0.000008 -0.000004 -0.000002 -0.000001 -0.000000 -0.000000 -0.000000 -0.000000 -0.000000 -0.000000 -0.000000 -0.000000 -0.000000 -0.000000 -0.000000 -0.000000 -0.000000 -0.000000 -0.000000 0.000000 -0.000000 -0.000000 0.000000 -0.000000 -0.000000 -0.000000 -0.000000 -0.000000 -0.000000 -0.000000 -0.000000 -0.000000 0.000000 -0.000000 -0.000000 0.000000 -0.000000 -0.000000 -0.000000 -0.000000 -0.000000 -0.000000 -0.000000 8636.829354 8636.829354 8636.829354 8631.572596 8584.709399 8492.574152 8312.515834 8160.480108 8135.966157 8080.936029 7906.829008 7716.110421 7415.368570 6993.485016 6500.693290 5996.448856 5448.104588 4881.772088 4299.595322 3716.160278 3157.080829 2637.737673 2165.141244 1723.636594 1307.876156 995.188195 794.718341 645.341240 507.645921 377.337961 263.307811 172.441299 105.949520 60.754418 31.932117 14.564469 4.656226 -0.652804 -3.240615 -4.268863 -4.430085 -4.130901 -3.610732 -3.011921 -2.418775 -1.879001 -1.416102 -1.037389 -0.739761 -0.514090 -0.348499 -0.230642 -0.149131 -0.094272 -0.058295 -0.035283 -0.020911 -0.012142 -0.006909 -0.003855 -0.002109 -0.001132 -0.000597 -0.000309 -0.000157 -0.000078 -0.000038 -0.000018 -0.000009 -0.000004 -0.000002 -0.000001 -0.000000 -0.000000 -0.000000 -0.000000 -0.000000 -0.000000 -0.000000 -0.000000 -0.000000 -0.000000 -0.000000 -0.000000 -0.000000 -0.000000 -0.000000 -0.000000 -0.000000 -0.000000 -0.000000 -0.000000 -0.000000 -0.000000 -0.000000 -0.000000 -0.000000 -0.000000 -0.000000 -0.000000 -0.000000 -0.000000 -0.000000 -0.000000 -0.000000 -0.000000 -0.000000 0.000000 0.000000 0.000000 0.000000 8601.410184 8601.410184 8601.410184 8599.170390 8574.315545 8516.008169 8447.284516 8387.083409 8351.548336 8278.875044 8121.002127 7898.695640 7580.192178 7158.545483 6665.617067 6138.073443 5576.222472 4991.086291 4394.793455 3802.257078 3232.979820 2702.306856 2217.479565 1777.202357 1387.057425 1077.317519 849.399217 671.848400 518.025401 381.020717 264.735125 173.204709 106.492327 61.164916 32.227320 14.762315 4.780866 -0.577965 -3.197301 -4.244644 -4.417226 -4.124814 -3.608718 -3.012336 -2.420562 -1.881448 -1.418729 -1.039889 -0.741960 -0.515911 -0.349935 -0.231728 -0.149922 -0.094828 -0.058675 -0.035534 -0.021073 -0.012243 -0.006972 -0.003892 -0.002131 -0.001145 -0.000604 -0.000312 -0.000159 -0.000079 -0.000039 -0.000019 -0.000009 -0.000004 -0.000002 -0.000001 -0.000000 -0.000000 -0.000000 -0.000000 -0.000000 -0.000000 -0.000000 -0.000000 -0.000000 -0.000000 -0.000000 -0.000000 -0.000000 -0.000000 -0.000000 -0.000000 -0.000000 -0.000000 -0.000000 -0.000000 -0.000000 -0.000000 -0.000000 -0.000000 -0.000000 -0.000000 -0.000000 -0.000000 -0.000000 -0.000000 -0.000000 -0.000000 -0.000000 0.000000 0.000000 0.000000 0.000000 0.000000 0.000000 8601.410184 8601.410184 8601.410184 8599.170390 8574.315545 8516.008169 8447.284516 8387.083409 8351.548336 8278.875044 8121.002127 7898.695640 7580.192178 7158.545483 6665.617067 6138.073443 5576.222472 4991.086291 4394.793455 3802.257078 3232.979820 2702.306856 2217.479565 1777.202357 1387.057425 1077.317519 849.399217 671.848400 518.025401 381.020717 264.735125 173.204709 106.492327 61.164916 32.227320 14.762315 4.780866 -0.577965 -3.197301 -4.244644 -4.417226 -4.124814 -3.608718 -3.012336 -2.420562 -1.881448 -1.418729 -1.039889 -0.741960 -0.515911 -0.349935 -0.231728 -0.149922 -0.094828 -0.058675 -0.035534 -0.021073 -0.012243 -0.006972 -0.003892 -0.002131 -0.001145 -0.000604 -0.000312 -0.000159 -0.000079 -0.000039 -0.000019 -0.000009 -0.000004 -0.000002 -0.000001 -0.000000 -0.000000 -0.000000 -0.000000 -0.000000 -0.000000 -0.000000 -0.000000 -0.000000 -0.000000 -0.000000 -0.000000 -0.000000 -0.000000 -0.000000 -0.000000 -0.000000 -0.000000 -0.000000 -0.000000 -0.000000 -0.000000 -0.000000 -0.000000 -0.000000 -0.000000 -0.000000 -0.000000 -0.000000 -0.000000 -0.000000 -0.000000 -0.000000 0.000000 0.000000 0.000000 0.000000 0.000000 0.000000 8601.410184 8601.410184 8601.410184 8599.170390 8574.315545 8516.008169 8447.284516 8387.083409 8351.548336 8278.875044 8121.002127 7898.695640 7580.192178 7158.545483 6665.617067 6138.073443 5576.222472 4991.086291 4394.793455 3802.257078 3232.979820 2702.306856 2217.479565 1777.202357 1387.057425 1077.317519 849.399217 671.848400 518.025401 381.020717 264.735125 173.204709 106.492327 61.164916 32.227320 14.762315 4.780866 -0.577965 -3.197301 -4.244644 -4.417226 -4.124814 -3.608718 -3.012336 -2.420562 -1.881448 -1.418729 -1.039889 -0.741960 -0.515911 -0.349935 -0.231728 -0.149922 -0.094828 -0.058675 -0.035534 -0.021073 -0.012243 -0.006972 -0.003892 -0.002131 -0.001145 -0.000604 -0.000312 -0.000159 -0.000079 -0.000039 -0.000019 -0.000009 -0.000004 -0.000002 -0.000001 -0.000000 -0.000000 -0.000000 -0.000000 -0.000000 -0.000000 -0.000000 -0.000000 -0.000000 -0.000000 -0.000000 -0.000000 -0.000000 -0.000000 -0.000000 -0.000000 -0.000000 -0.000000 -0.000000 -0.000000 -0.000000 -0.000000 -0.000000 -0.000000 -0.000000 -0.000000 -0.000000 -0.000000 -0.000000 -0.000000 -0.000000 -0.000000 -0.000000 0.000000 0.000000 0.000000 0.000000 0.000000 0.000000 14350.055830 14350.055830 14350.055830 14494.362973 15958.594405 17307.944472 20210.834467 22954.277011 22738.144786 21268.017672 18683.620846 20435.633674 21534.804433 20967.230260 21303.344700 20590.701338 19809.323234 19029.521210 18369.710854 16958.324071 15851.373626 15320.538933 14373.022198 14184.642304 13673.067075 13505.409564 13098.173737 12408.472986 11526.794702 10561.355794 9466.726620 9110.382594 7144.724704 8079.408226 5017.826587 5749.423846 3990.953628 2244.590545 875.073670 4655.950862 -2351.243079 3170.162558 -243.853934 -4797.917841 2075.734694 -4725.775177 -4901.629992 -205.521260 1716.809716 -1704.838648 -1734.168706 938.045566 142.388369 -1969.860773 -1770.991990 -1396.720802 16251.273170 16251.273170 16251.273170 16718.339108 22100.452558 23276.187808 22752.130626 20242.484644 31621.641114 26284.539160 24793.972111 28142.601725 27344.957821 24834.909320 25373.336553 27344.575714 27846.797268 28902.195352 28189.063638 28468.125042 25958.436949 26343.804314 25508.169825 25793.284187 26584.555484 26839.478520 26561.465377 25253.006063 23898.207847 22410.027174 21444.197904 19971.886731 19054.863881 18195.117527 17686.880672 17219.392592 17092.918049 16894.423534 16100.884017 15848.915202 15874.303656 15204.234251 14506.052163 14237.315527 14007.143007 12700.447275 12089.298288 12217.885546 11169.352396 9351.488661 9779.445096 7333.032356 4557.508370 -1865.114278 450.701889 604.523676 19149.586327 19149.586327 19149.586327 19795.328375 27154.663430 31170.773818 35509.626175 33207.139368 23765.543797 33725.221445 35127.277627 32656.664860 30467.158046 30890.564185 34532.724858 31241.607619 34089.096263 35517.476290 33164.412755 32781.969833 29711.084205 31520.708739 29449.055726 29344.635479 28931.885051 28819.516870 27736.218877 28014.336870 27369.925864 26644.483379 26168.477367 25094.532265 24443.712999 23769.033610 22833.038619 22051.239321 21337.549924 20625.069968 20338.948643 19624.480774 18921.285177 18782.866103 18080.959720 16833.980087 15919.012948 14514.242774 13278.002717 11706.127696 10833.491579 7952.701657 8337.126001 5278.907707 4239.348847 -27.378526 98.208607 2773.672692 21623.318577 21623.318577 21623.318577 21878.840031 23413.091091 27045.343679 28951.336000 36034.229330 42971.071447 36786.909386 38580.084792 38907.064083 35914.187911 41340.982794 39187.897784 37960.188800 40349.539456 34395.035812 35763.916847 33259.717721 34644.881515 34041.180068 34487.110731 34055.705004 35347.098069 32662.270535 32038.635120 30412.763766 28893.091608 27686.287764 26814.307056 26272.700910 25668.621270 25438.118496 24918.737484 24221.101398 23566.432895 22701.873998 21892.844918 21346.490722 20531.744500 19534.054597 18823.134902 17637.305191 16591.980971 15257.454538 13916.649645 11344.510254 10456.840486 8694.014798 6665.975899 6794.363288 3269.929191 4115.460304 2303.283340 668.856170 23756.360315 23756.360315 23756.360315 24107.588067 26009.546434 31218.857306 33121.710679 34673.554104 32677.268100 48123.400665 39129.635259 41349.558975 41677.956239 42731.407131 39952.378395 42584.705102 38337.386224 40707.852011 35339.093328 36615.915677 37635.041912 37701.561370 36307.103297 36152.569014 37030.508272 36884.218548 34595.723164 34040.302510 32033.472094 31614.320497 30228.489271 29093.120146 28036.061599 27241.118649 25812.548763 24970.886517 24142.422081 23196.522939 22364.230217 21603.075074 20730.872291 19803.216907 18884.882953 17802.763671 16667.803340 14824.673834 13020.954418 11792.116619 9436.806809 8152.545178