<VTKFile type="PolyData">
<PolyData>
<Piece NumberOfPoints="8632" NumberOfVerts="8632" NumberOfLines="0" NumberOfStrips="0" NumberOfPolys="0">
<PointData>
<DataArray type="Float64" Name="Pressure" format="ascii">
 12901.986743 12901.986743 12901.986743 12896.825517 12841.023698 12704.719637 12549.732709 12349.245904 12079.406631 11727.759384 11301.003204 10820.904433 10305.835776 9770.659746 9223.160150 8659.219476 8083.402208 7511.061523 6945.895234 6383.120222 5824.990841 5279.348856 4749.328856 4231.189909 3729.749280 3257.177972 2816.740314 2400.767991 1996.903049 1591.237631 1181.869587 810.915716 548.152238 405.369258 337.117345 287.135051 202.064956 55.882567 -98.677766 -190.510903 -232.335638 -285.286121 -407.328309 -592.161396 -759.150856 -888.221697 -1033.271978 -1219.097625 -1383.499593 -1471.601643 -1498.117664 -1490.974818 -1465.548296 -1430.016413 -1388.384580 -1342.321934 -1292.575044 -1240.132091 -1186.275900 -1131.968348 -1077.792166 -1024.128908 -971.256805 -919.394465 -868.718958 -819.374285 -771.476534 -725.117866 -680.369948 -637.286925 -595.907926 -556.259120 -518.355358 -482.201478 -447.793345 -415.118708 -384.157932 -354.884661 -327.266439 -301.265320 -276.838463 -253.938736 -232.515310 -212.514239 -193.879033 -176.551205 -160.470791 -145.576840 -131.807862 -119.102247 -107.398638 -96.636267 -86.755249 -77.696841 -69.403659 -61.819868 -54.891342 -48.565806 -42.792999 -37.524917 -32.716322 -28.325938 -24.319372 -20.675745 -17.399535 -14.521382 -12.023053 -10.411926 -10.107449 -10.107449 -10.107449 12901.986743 12901.986743 12901.986743 12896.825517 12841.023698 12704.719637 12549.732709 12349.245904 12079.406631 11727.759384 11301.003204 10820.904433 10305.835776 9770.659746 9223.160150 8659.219476 8083.402208 7511.061523 6945.895234 6383.120222 5824.990841 5279.348856 4749.328856 4231.189909 3729.749280 3257.177972 2816.740314 2400.767991 1996.903049 1591.237631 1181.869587 810.915716 548.152238 405.369258 337.117345 287.135051 202.064956 55.882567 -98.677766 -190.510903 -232.335638 -285.286121 -407.328309 -592.161396 -759.150856 -888.221697 -1033.271978 -1219.097625 -1383.499593 -1471.601643 -1498.117664 -1490.974818 -1465.548296 -1430.016413 -1388.384580 -1342.321934 -1292.575044 -1240.132091 -1186.275900 -1131.968348 -1077.792166 -1024.128908 -971.256805 -919.394465 -868.718958 -819.374285 -771.476534 -725.117866 -680.369948 -637.286925 -595.907926 -556.259120 -518.355358 -482.201478 -447.793345 -415.118708 -384.157932 -354.884661 -327.266439 -301.265320 -276.838463 -253.938736 -232.515310 -212.514239 -193.879033 -176.551205 -160.470791 -145.576840 -131.807862 -119.102247 -107.398638 -96.636267 -86.755249 -77.696841 -69.403659 -61.819868 -54.891342 -48.565806 -42.792999 -37.524917 -32.716322 -28.325938 -24.319372 -20.675745 -17.399535 -14.521382 -12.023053 -10.411926 -10.107449 -10.107449 -10.107449 12901.986743 12901.986743 12901.986743 12896.825517 12841.023698 12704.719637 12549.732709 12349.245904 12079.406631 11727.759384 11301.003204 10820.904433 10305.835776 9770.659746 9223.160150 8659.219476 8083.402208 7511.061523 6945.895234 6383.120222 5824.990841 5279.348856 4749.328856 4231.189909 3729.749280 3257.177972 2816.740314 2400.767991 1996.903049 1591.237631 1181.869587 810.915716 548.152238 405.369258 337.117345 287.135051 202.064956 55.882567 -98.677766 -190.510903 -232.335638 -285.286121 -407.328309 -592.161396 -759.150856 -888.221697 -1033.271978 -1219.097625 -1383.499593 -1471.601643 -1498.117664 -1490.974818 -1465.548296 -1430.016413 -1388.384580 -1342.321934 -1292.575044 -1240.132091 -1186.275900 -1131.968348 -1077.792166 -1024.128908 -971.256805 -919.394465 -868.718958 -819.374285 -771.476534 -725.117866 -680.369948 -637.286925 -595.907926 -556.259120 -518.355358 -482.201478 -447.793345 -415.118708 -384.157932 -354.884661 -327.266439 -301.265320 -276.838463 -253.938736 -232.515310 -212.514239 -193.879033 -176.551205 -160.470791 -145.576840 -131.807862 -119.102247 -107.398638 -96.636267 -86.755249 -77.696841 -69.403659 -61.819868 -54.891342 -48.565806 -42.792999 -37.524917 -32.716322 -28.325938 -24.319372 -20.675745 -17.399535 -14.521382 -12.023053 -10.411926 -10.107449 -10.107449 -10.107449 12912.541950 12912.541950 12912.541950 12907.708503 12856.994435 12738.334271 12602.547323 12413.851556 12150.205812 11801.101421 11369.048724 10882.579658 10359.441352 9818.229437 9271.969683 8704.100954 8117.498583 7540.793768 6975.206040 6408.285513 5846.992855 5302.095110 4775.634118 4253.108097 3741.080042 3261.753059 2820.177179 2406.025016 2005.162265 1598.886272 1173.253052 774.907685 507.540518 381.418057 332.634187 300.620585 225.104464 59.417875 -125.979024 -207.938519 -228.866673 -262.128809 -372.800094 -597.991797 -774.265986 -882.543132 -1012.456579 -1231.024469 -1407.969872 -1493.469266 -1511.011430 -1497.916795 -1469.298629 -1432.178507 -1389.857493 -1343.519380 -1293.434149 -1240.593521 -1186.475233 -1132.045412 -1077.816098 -1024.129620 -971.246735 -919.378854 -868.700134 -819.353385 -771.454191 -725.094487 -680.345826 -637.262288 -595.882963 -556.233990 -518.330201 -482.176418 -447.768496 -415.094171 -384.133800 -354.861018 -327.243362 -301.242873 -276.816707 -253.917721 -232.495077 -212.494822 -193.860459 -176.533493 -160.453954 -145.560883 -131.792785 -119.088046 -107.385304 -96.623786 -86.743603 -77.686009 -69.393616 -61.810584 -54.882775 -48.557888 -42.785599 -37.517746 -32.708690 -28.316169 -24.303511 -20.645609 -17.347097 -14.453382 -11.966349 -10.366218 -10.064040 -10.064040 -10.064040 13030.741414 13030.741414 13030.741414 13032.815708 13070.587698 13205.321027 13327.818919 13253.093878 13036.520350 12739.192422 12255.444317 11701.799155 11067.000503 10443.822187 9948.177384 9325.270357 8558.330110 7924.321816 7366.032756 6724.951012 6105.824053 5594.697292 5154.792502 4579.773195 3901.593525 3318.944773 2860.073324 2465.776134 2109.221913 1736.284583 1127.856582 227.890007 -36.609799 99.358131 284.886378 466.588714 623.189013 135.791299 -552.483562 -444.863096 -189.462477 101.001021 119.837423 -737.822404 -1044.654636 -794.755745 -724.744877 -1452.099163 -1859.753325 -1749.780407 -1652.886862 -1573.236109 -1509.877615 -1455.616313 -1406.203085 -1358.251342 -1304.227508 -1245.410355 -1188.471366 -1132.798686 -1078.046223 -1024.132727 -971.144341 -919.222017 -868.511567 -819.144232 -771.230697 -724.860677 -680.104610 -637.015940 -595.633357 -555.982724 -518.078674 -481.925875 -447.520059 -414.848861 -383.892544 -354.624655 -327.012646 -301.018474 -276.599209 -253.707628 -232.292808 -212.300717 -193.674782 -176.356436 -160.285640 -145.401372 -131.642081 -118.946100 -107.252019 -96.499026 -86.627194 -77.577741 -69.293240 -61.717794 -54.797156 -48.478777 -42.711719 -37.446277 -32.632908 -28.219522 -24.145310 -20.332040 -16.698720 -13.562682 -11.266586 -9.841556 -9.587087 -9.587087 -9.587087 13211.563357 13211.563357 13211.563357 13230.244849 13362.890663 13934.645791 14831.273350 14397.302516 13946.956761 14261.817571 13626.985542 13113.704229 12272.438656 11234.433957 11318.616292 10689.505619 9108.746793 8473.751168 8286.330205 7133.542632 6419.359463 5995.959895 6131.214846 5460.244697 4223.320574 3412.057057 2915.950857 2541.831810 2248.756674 2101.587749 1330.959385 -719.957452 -988.207748 -257.901209 229.261539 714.981850 1270.955610 320.403886 -1139.015432 -791.024650 -143.031497 597.734434 619.434847 -1159.942036 -1517.089864 -640.421225 -240.676411 -1685.057363 -2510.689635 -2095.901105 -1822.784358 -1662.052566 -1557.576820 -1483.212815 -1426.191024 -1380.333304 -1325.199680 -1253.950795 -1191.590186 -1133.964599 -1078.426373 -1024.182531 -971.045879 -919.050475 -868.299555 -818.907116 -770.976648 -724.594688 -679.830147 -636.735648 -595.349381 -555.696885 -517.792558 -481.640895 -447.237491 -414.569862 -383.618167 -354.355854 -326.750278 -300.763300 -276.351895 -253.468743 -232.062830 -212.080033 -193.463691 -176.155154 -160.094306 -145.220054 -131.470782 -118.784763 -107.100535 -96.357237 -86.494900 -77.454699 -69.179159 -61.612303 -54.699728 -48.388517 -42.626818 -37.362615 -32.540464 -28.093056 -23.919113 -19.824165 -15.304211 -11.922033 -10.170113 -9.113600 -8.919771 -8.919771 -8.919771 -11.255736 -9.738818 -8.935213 -8.826263 -8.826263 -8.826263 -9.665288 -8.799853 -8.256038 -8.181442 -8.181442 -8.181442 -7.752383 -7.457141 -7.214113 -7.179856 -7.179856 -7.179856 -6.467864 -6.358089 -6.263344 -6.249338 -6.249338 -6.249338 -5.484830 -5.447617 -5.416661 -5.412267 -5.412267 -5.412267 -4.684279 -4.676006 -4.671285 -4.670913 -4.670913 -4.670913 -4.010521 -4.013524 -4.018959 -4.020134 -4.020134 -4.020134 -3.434417 -3.441401 -3.450251 -3.451923 -3.451923 -3.451923 -2.938414 -2.946386 -2.955887 -2.957627 -2.957627 -2.957627 -2.510384 -2.518155 -2.527220 -2.528862 -2.528862 -2.528862 -2.140990 -2.148124 -2.156372 -2.157859 -2.157859 -2.157859 -1.822537 -1.828911 -1.836251 -1.837571 -1.837571 -1.837571 -1.548439 -1.554057 -1.560515 -1.561675 -1.561675 -1.561675 -1.312959 -1.317872 -1.323516 -1.324530 -1.324530 -1.324530 -1.111061 -1.115338 -1.120249 -1.121130 -1.121130 -1.121130 -0.938313 -0.942023 -0.946282 -0.947047 -0.947047 -0.947047 -0.790819 -0.794028 -0.797711 -0.798373 -0.798373 -0.798373 -0.665154 -0.667922 -0.671100 -0.671670 -0.671670 -0.671670 -0.558315 -0.560697 -0.563432 -0.563923 -0.563923 -0.563923 -0.467678 -0.469723 -0.472071 -0.472493 -0.472493 -0.472493 -0.390950 -0.392702 -0.394714 -0.395075 -0.395075 -0.395075 -0.326138 -0.327635 -0.329354 -0.329663 -0.329663 -0.329663 -0.271508 -0.272784 -0.274250 -0.274513 -0.274513 -0.274513 -0.225561 -0.226647 -0.227894 -0.228118 -0.228118 -0.228118 -0.187001 -0.187922 -0.188981 -0.189171 -0.189171 -0.189171 -0.154710 -0.155490 -0.156386 -0.156547 -0.156547 -0.156547 -0.127728 -0.128387 -0.129144 -0.129280 -0.129280 -0.129280 -0.105231 -0.105786 -0.106425 -0.106539 -0.106539 -0.106539 -0.086515 -0.086982 -0.087519 -0.087615 -0.087615 -0.087615 -0.070978 -0.071370 -0.071820 -0.071901 -0.071901 -0.071901 -0.058109 -0.058437 -0.058814 -0.058881 -0.058881 -0.058881 -0.047473 -0.047746 -0.048061 -0.048118 -0.048118 -0.048118 -0.038701 -0.038929 -0.039192 -0.039239 -0.039239 -0.039239 -0.031484 -0.031673 -0.031891 -0.031931 -0.031931 -0.031931 -0.025558 -0.025715 -0.025896 -0.025928 -0.025928 -0.025928 -0.020703 -0.020833 -0.020983 -0.021010 -0.021010 -0.021010 -0.016735 -0.016842 -0.016966 -0.016988 -0.016988 -0.016988 -0.013498 -0.013587 -0.013688 -0.013707 -0.013707 -0.013707 -0.010864 -0.010937 -0.011021 -0.011036 -0.011036 -0.011036 -0.008726 -0.008785 -0.008854 -0.008866 -0.008866 -0.008866 -0.006993 -0.007042 -0.007098 -0.007108 -0.007108 -0.007108 -0.005592 -0.005632 -0.005678 -0.005686 -0.005686 -0.005686 -0.004463 -0.004495 -0.004532 -0.004539 -0.004539 -0.004539 -0.003553 -0.003580 -0.003610 -0.003615 -0.003615 -0.003615 -0.002823 -0.002845 -0.002869 -0.002873 -0.002873 -0.002873 -0.002238 -0.002256 -0.002275 -0.002279 -0.002279 -0.002279 -0.001771 -0.001785 -0.001801 -0.001803 -0.001803 -0.001803 -0.001398 -0.001409 -0.001422 -0.001424 -0.001424 -0.001424 -0.001101 -0.001110 -0.001120 -0.001122 -0.001122 -0.001122 -0.000865 -0.000873 -0.000881 -0.000882 -0.000882 -0.000882 -0.000679 -0.000684 -0.000691 -0.000692 -0.000692 -0.000692 -0.000531 -0.000536 -0.000541 -0.000542 -0.000542 -0.000542 -0.000415 -0.000418 -0.000423 -0.000423 -0.000423 -0.000423 -0.000323 -0.000326 -0.000329 -0.000330 -0.000330 -0.000330 -0.000251 -0.000253 -0.000256 -0.000257 -0.000257 -0.000257 -0.000195 -0.000197 -0.000199 -0.000199 -0.000199 -0.000199 -0.000151 -0.000152 -0.000154 -0.000154 -0.000154 -0.000154 -0.000116 -0.000118 -0.000119 -0.000119 -0.000119 -0.000119 -0.000090 -0.000091 -0.000092 -0.000092 -0.000092 -0.000092 -0.000069 -0.000070 -0.000071 -0.000071 -0.000071 -0.000071 -0.000053 -0.000054 -0.000054 -0.000054 -0.000054 -0.000054 -0.000041 -0.000041 -0.000041 -0.000042 -0.000042 -0.000042 -0.000031 -0.000031 -0.000032 -0.000032 -0.000032 -0.000032 -0.000024 -0.000024 -0.000024 -0.000024 -0.000024 -0.000024 -0.000018 -0.000018 -0.000018 -0.000018 -0.000018 -0.000018 -0.000014 -0.000014 -0.000014 -0.000014 -0.000014 -0.000014 -0.000010 -0.000010 -0.000011 -0.000011 -0.000011 -0.000011 -0.000008 -0.000008 -0.000008 -0.000008 -0.000008 -0.000008 -0.000006 -0.000006 -0.000006 -0.000006 -0.000006 -0.000006 -0.000004 -0.000004 -0.000005 -0.000005 -0.000005 -0.000005 -0.000003 -0.000003 -0.000003 -0.000003 -0.000003 -0.000003 -0.000002 -0.000003 -0.000003 -0.000003 -0.000003 -0.000003 -0.000002 -0.000002 -0.000002 -0.000002 -0.000002 -0.000002 -0.000001 -0.000001 -0.000001 -0.000001 -0.000001 -0.000001 -0.000001 -0.000001 -0.000001 -0.000001 -0.000001 -0.000001 -0.000001 -0.000001 -0.000001 -0.000001 -0.000001 -0.000001 -0.000001 -0.000001 -0.000001 -0.000001 -0.000001 -0.000001 -0.000000 -0.000000 -0.000000 -0.000000 -0.000000 -0.000000 -0.000000 -0.000000 -0.000000 -0.000000 -0.000000 -0.000000 -0.000000 -0.000000 -0.000000 -0.000000 -0.000000 -0.000000 -0.000000 -0.000000 -0.000000 -0.000000 -0.000000 -0.000000 -0.000000 -0.000000 -0.000000 -0.000000 -0.000000 -0.000000 -0.000000 -0.000000 -0.000000 -0.000000 -0.000000 -0.000000 -0.000000 -0.000000 -0.000000 -0.000000 -0.000000 -0.000000 -0.000000 -0.000000 -0.000000 -0.000000 -0.000000 -0.000000 -0.000000 -0.000000 -0.000000 -0.000000 -0.000000 -0.000000 -0.000000 -0.000000 -0.000000 -0.000000 -0.000000 -0.000000 -0.000000 -0.000000 -0.000000 -0.000000 -0.000000 -0.000000 -0.000000 -0.000000 -0.000000 -0.000000 -0.000000 -0.000000 -0.000000 -0.000000 -0.000000 -0.000000 -0.000000 -0.000000 -0.000000 -0.000000 -0.000000 -0.000000 -0.000000 -0.000000 -0.000000 -0.000000 -0.000000 -0.000000 -0.000000 -0.000000 -0.000000 -0.000000 -0.000000 -0.000000 -0.000000 -0.000000 -0.000000 -0.000000 -0.000000 -0.000000 -0.000000 -0.000000 -0.000000 -0.000000 -0.000000 -0.000000 -0.000000 -0.000000 -0.000000 -0.000000 -0.000000 -0.000000 -0.000000 -0.000000 -0.000000 -0.000000 -0.000000 0.000000 0.000000 0.000000 -0.000000 -0.000000 -0.000000 0.000000 0.000000 0.000000 0.000000 -0.000000 -0.000000 0.000000 0.000000 0.000000 0.000000 -0.000000 0.000000 0.000000 0.000000 0.000000 0.000000 0.000000 0.000000 0.000000 0.000000 0.000000 0.000000 0.000000 0.000000 0.000000 0.000000 0.000000 0.000000 0.000000 0.000000 0.000000 0.000000 0.000000 0.000000 0.000000 0.000000 0.000000 0.000000 0.000000 0.000000 0.000000 0.000000 0.000000 0.000000 0.000000 0.000000 0.000000 0.000000 0.000000 0.000000 0.000000 0.000000 0.000000 0.000000 0.000000 0.000000 0.000000 0.000000 0.000000 0.000000 0.000000 0.000000 0.000000 0.000000 0.000000 0.000000 0.000000 0.000000 0.000000 0.000000 0.000000 0.000000 0.000000 0.000000 0.000000 0.000000 0.000000 0.000000 0.000000 0.000000 0.000000 0.000000 0.000000 0.000000 0.000000 0.000000 0.000000 0.000000 0.000000 0.000000 0.000000 0.000000 0.000000 0.000001 0.000001 0.000001 0.000001 0.000001 0.000001 0.000001 0.000001 0.000001 0.000001 0.000001 0.000001 0.000002 0.000002 0.000002 0.000002 0.000002 0.000002 0.000003 0.000003 0.000003 0.000003 0.000003 0.000003 0.000004 0.000004 0.000004 0.000004 0.000004 0.000004 0.000006 0.000006 0.000006 0.000006 0.000006 0.000006 0.000009 0.000009 0.000009 0.000009 0.000009 0.000009 0.000013 0.000013 0.000014 0.000014 0.000014 0.000014 0.000019 0.000020 0.000020 0.000020 0.000020 0.000020 0.000028 0.000029 0.000029 0.000030 0.000030 0.000030 0.000041 0.000042 0.000043 0.000043 0.000043 0.000043 0.000059 0.000061 0.000062 0.000062 0.000062 0.000062 0.000086 0.000087 0.000089 0.000089 0.000089 0.000089 0.000122 0.000124 0.000127 0.000127 0.000127 0.000127 0.000174 0.000177 0.000180 0.000181 0.000181 0.000181 0.000245 0.000249 0.000253 0.000254 0.000254 0.000254 0.000343 0.000349 0.000355 0.000356 0.000356 0.000356 0.000478 0.000485 0.000493 0.000495 0.000495 0.000495 0.000661 0.000671 0.000681 0.000683 0.000683 0.000683 0.000909 0.000921 0.000935 0.000938 0.000938 0.000938 0.001240 0.001256 0.001274 0.001278 0.001278 0.001278 0.001681 0.001702 0.001725 0.001730 0.001730 0.001730 0.002263 0.002290 0.002320 0.002326 0.002326 0.002326 0.003026 0.003060 0.003099 0.003106 0.003106 0.003106 0.004019 0.004061 0.004110 0.004119 0.004119 0.004119 0.005300 0.005353 0.005414 0.005424 0.005424 0.005424 0.006941 0.007006 0.007080 0.007094 0.007094 0.007094 0.009024 0.009104 0.009195 0.009211 0.009211 0.009211 0.011649 0.011745 0.011855 0.011875 0.011875 0.011875 0.014928 0.015043 0.015175 0.015198 0.015198 0.015198 0.018988 0.019124 0.019280 0.019308 0.019308 0.019308 0.023972 0.024131 0.024313 0.024346 0.024346 0.024346 0.030034 0.030217 0.030427 0.030464 0.030464 0.030464 0.037337 0.037545 0.037783 0.037825 0.037825 0.037825 0.046048 0.046281 0.046547 0.046594 0.046594 0.046594 0.056333 0.056588 0.056880 0.056932 0.056932 0.056932 0.068343 0.068617 0.068930 0.068986 0.068986 0.068986 0.082206 0.082493 0.082822 0.082880 0.082880 0.082880 0.098010 0.098303 0.098637 0.098697 0.098697 0.098697 0.115789 0.116075 0.116401 0.116460 0.116460 0.116460 0.135495 0.135760 0.136061 0.136115 0.136115 0.136115 0.156981 0.157206 0.157462 0.157507 0.157507 0.157507 0.179974 0.180137 0.180320 0.180352 0.180352 0.180352 0.204046 0.204121 0.204201 0.204215 0.204215 0.204215 0.228592 0.228547 0.228490 0.228479 0.228479 0.228479 0.252796 0.252598 0.252365 0.252323 0.252323 0.252323 0.275618 0.275229 0.274778 0.274697 0.274697 0.274697 0.295765 0.295147 0.294434 0.294306 0.294306 0.294306 0.311686 0.310801 0.309782 0.309599 0.309599 0.309599 0.321570 0.320380 0.319012 0.318766 0.318766 0.318766 0.323350 0.321820 0.320064 0.319748 0.319748 0.319748 0.314728 0.312829 0.310652 0.310261 0.310261 0.310261 0.293213 0.290924 0.288302 0.287832 0.287832 0.287832 0.256173 0.253485 0.250406 0.249854 0.249854 0.249854 0.200910 0.197824 0.194293 0.193660 0.193660 0.193660 0.124746 0.121281 0.117318 0.116608 0.116608 0.116608 0.025127 0.021318 0.016965 0.016185 0.016185 0.016185 -0.100256 -0.104354 -0.109035 -0.109873 -0.109873 -0.109873 -0.253341 -0.257653 -0.262577 -0.263458 -0.263458 -0.263458 -0.435559 -0.439990 -0.445049 -0.445954 -0.445954 -0.445954 -0.647701 -0.652138 -0.657201 -0.658106 -0.658106 -0.658106 -0.889789 -0.894102 -0.899020 -0.899899 -0.899899 -0.899899 -1.160965 -1.165009 -1.169617 -1.170441 -1.170441 -1.170441 -1.459394 -1.463015 -1.467138 -1.467875 -1.467875 -1.467875 -1.782203 -1.785242 -1.788699 -1.789316 -1.789316 -1.789316 -2.125449 -2.127749 -2.130362 -2.130828 -2.130828 -2.130828 -2.484134 -2.485548 -2.487147 -2.487431 -2.487431 -2.487431 -2.852261 -2.852654 -2.853088 -2.853164 -2.853164 -2.853164 -3.222935 -3.222197 -3.221340 -3.221185 -3.221185 -3.221185 -3.588519 -3.586569 -3.584328 -3.583925 -3.583925 -3.583925 -3.940829 -3.937619 -3.933942 -3.933283 -3.933283 -3.933283 -4.271367 -4.266891 -4.261771 -4.260854 -4.260854 -4.260854 -4.571595 -4.565889 -4.559368 -4.558200 -4.558200 -4.558200 -4.833218 -4.826365 -4.818536 -4.817134 -4.817134 -4.817134 -5.048488 -5.040616 -5.031624 -5.030014 -5.030014 -5.030014 -5.210499 -5.201778 -5.191818 -5.190035 -5.190035 -5.190035 -5.313455 -5.304103 -5.293420 -5.291507 -5.291507 -5.291507 -5.352915 -5.343197 -5.332087 -5.330097 -5.330097 -5.330097 -5.325966 -5.316211 -5.305033 -5.303028 -5.303028 -5.303028 -5.231309 -5.221957 -5.211177 -5.209237 -5.209237 -5.209237 -5.069208 -5.060931 -5.051229 -5.049468 -5.049468 -5.049468 -4.841178 -4.835174 -4.827723 -4.826330 -4.826330 -4.826330 -4.549180 -4.547897 -4.545006 -4.544346 -4.544346 -4.544346 -4.193741 -4.202638 -4.209255 -4.210090 -4.210090 -4.210090 -3.769482 -3.801691 -3.828679 -3.832586 -3.832586 -3.832586 -3.253618 -3.344453 -3.414597 -3.424323 -3.424323 -3.424323 -2.566763 -2.839232 -2.982262 -3.001256 -3.001256 -3.001256 16755.113184 16755.113184 16755.113184 16708.000089 15781.302677 15277.560010 15771.817187 13187.021118 12715.566507 13349.141917 11826.881885 12284.666768 13304.703908 13319.287722 12871.751081 12197.258479 12255.156344 11669.567926 9508.740609 8766.752802 9338.433062 8511.254483 6326.412518 5493.947383 5035.191219 7728.057873 6947.709339 8822.689478 6576.902077 4781.960562 4882.450789 4617.485161 4394.759245 4243.067629 4320.117281 5415.920056 5024.015559 -2237.536612 -3135.802952 -667.805574 308.303447 1016.813689 2059.333263 4196.642377 1050.802883 -3828.221960 -2513.135472 -1308.775959 -831.200718 -607.441074 -495.873213 -433.670391 -393.246279 -362.424640 -335.876352 -311.294123 -287.701387 -264.713318 -242.214435 -220.215575 -198.787884 -178.030408 -158.052780 -138.965017 -120.870836 -103.862887 -88.019184 -73.400474 -60.048444 -47.984753 -37.210875 -27.708694 -19.441795 -12.357329 -6.388335 -1.456381 2.525624 5.650570 8.014365 9.713334 10.841885 11.490494 11.744058 11.680620 11.370477 10.875641 10.249626 9.537525 8.776326 7.995411 7.217214 6.457965 5.728498 5.035077 4.380213 3.763448 3.182071 2.631750 2.107027 1.601588 1.108112 0.617222 0.114312 -0.428599 -1.094544 -1.791863 -2.255458 -2.515952 -2.562683 -2.562683 -2.562683 16859.254548 16859.254548 16859.254548 16844.585953 16279.562013 15251.501205 15252.065718 14150.105751 13699.592015 13779.643036 12709.268673 12576.024341 12858.443202 12842.625604 12805.439228 12122.475500 11702.140005 11063.349900 10268.767572 9760.817196 9596.181606 9122.479971 8414.615635 7824.523144 7636.375501 7950.440195 7964.444657 7755.081371 6803.648677 5729.005403 5088.767642 4708.285800 4399.592599 4128.521402 3929.868274 3713.164721 2945.144414 920.315645 164.984913 346.198672 675.475779 962.516182 1300.484630 1572.431276 532.628168 -996.336140 -1021.815183 -797.919802 -613.468257 -511.272596 -452.506686 -413.930945 -384.208306 -358.275228 -333.975971 -310.435666 -287.330542 -264.575444 -242.192879 -220.257064 -198.868004 -178.137650 -158.181222 -139.110996 -121.031468 -104.035436 -88.200832 -73.588281 -60.239391 -48.175832 -37.399179 -27.891518 -19.616713 -12.522262 -6.541597 -1.596703 2.399089 5.538256 7.916323 9.629271 10.771209 11.432372 11.697469 11.644413 11.343422 10.856478 10.237107 9.530451 8.773572 7.995950 7.220130 6.462462 5.733906 5.040848 4.385925 3.768802 3.186905 2.636074 2.111122 1.606251 1.115244 0.631265 0.146016 -0.351553 -0.865049 -1.364993 -1.794632 -2.070044 -2.120134 -2.120134 -2.120134 16910.980287 16910.980287 16910.980287 16885.247658 16580.173316 15806.385665 15118.857939 14529.944418 14083.451655 13734.484664 13379.259538 13118.387611 12932.911618 12738.382465 12473.911099 12090.974725 11648.127683 11178.214508 10707.690350 10287.133469 9902.008448 9488.712395 9048.770544 8622.800273 8218.036609 7835.907996 7421.491195 6927.548407 6318.965929 5708.691309 5200.248759 4781.564947 4403.241191 4033.087557 3650.339119 3209.927062 2625.973875 1927.554735 1387.555412 1106.482379 985.679994 933.470295 883.977767 735.305150 382.886513 -39.320180 -292.849866 -392.317666 -422.096028 -423.286093 -412.346870 -395.575529 -375.790369 -354.407501 -332.205138 -309.638583 -286.991157 -264.456642 -242.186077 -220.312720 -198.963403 -178.262014 -158.328867 -139.278235 -121.215233 -104.232710 -88.408451 -73.802915 -60.457612 -48.394213 -37.614411 -28.100515 -19.816707 -12.710881 -6.716912 -1.757262 2.254256 5.409652 7.804011 9.532922 10.690154 11.365665 11.643950 11.602771 11.312256 10.834351 10.222596 9.522186 8.770267 7.996432 7.223351 6.467513 5.740016 5.047390 4.392410 3.774882 3.192379 2.640922 2.115593 1.611087 1.122214 0.644402 0.174331 -0.288822 -0.740795 -1.169633 -1.564454 -1.831269 -1.882959 -1.882959 -1.882959 16918.430286 16918.430286 16918.430286 16891.336532 16590.478664 15858.963366 15174.757398 14590.884685 14135.801639 13772.356121 13451.110429 13188.474282 12967.806924 12739.283728 12456.385583 12088.882405 11664.103672 11215.840749 10771.176962 10351.125313 9947.506871 9535.011551 9110.816974 8681.910091 8245.989193 7801.424674 7332.436341 6815.008799 6249.960666 5697.395698 5212.400232 4792.146073 4403.755700 4019.145293 3614.973283 3156.959863 2611.634088 2021.215533 1526.539232 1206.772719 1031.388474 930.995686 833.647958 661.932649 372.790502 42.395783 -202.690024 -335.921604 -393.202854 -409.676546 -406.083415 -392.704624 -374.472118 -353.801425 -331.927701 -309.514048 -286.938735 -264.439204 -242.186626 -220.323504 -198.980868 -178.284464 -158.355393 -139.308225 -121.248161 -104.268045 -88.445634 -73.841352 -60.496691 -48.433321 -37.652958 -28.137947 -19.852531 -12.744671 -6.748324 -1.786035 2.228297 5.386596 7.783871 9.515639 10.675610 11.353690 11.634338 11.595287 11.306649 10.830365 10.219976 9.520687 8.769659 7.996504 7.223917 6.468408 5.741103 5.048556 4.393567 3.775967 3.193355 2.641781 2.116373 1.611904 1.123345 0.646468 0.178654 -0.279855 -0.724364 -1.145215 -1.535958 -1.800004 -1.851080 -1.851080 -1.851080 16918.430286 16918.430286 16918.430286 16891.336532 16590.478664 15858.963366 15174.757398 14590.884685 14135.801639 13772.356121 13451.110429 13188.474282 12967.806924 12739.283728 12456.385583 12088.882405 11664.103672 11215.840749 10771.176962 10351.125313 9947.506871 9535.011551 9110.816974 8681.910091 8245.989193 7801.424674 7332.436341 6815.008799 6249.960666 5697.395698 5212.400232 4792.146073 4403.755700 4019.145293 3614.973283 3156.959863 2611.634088 2021.215533 1526.539232 1206.772719 1031.388474 930.995686 833.647958 661.932649 372.790502 42.395783 -202.690024 -335.921604 -393.202854 -409.676546 -406.083415 -392.704624 -374.472118 -353.801425 -331.927701 -309.514048 -286.938735 -264.439204 -242.186626 -220.323504 -198.980868 -178.284464 -158.355393 -139.308225 -121.248161 -104.268045 -88.445634 -73.841352 -60.496691 -48.433321 -37.652958 -28.137947 -19.852531 -12.744671 -6.748324 -1.786035 2.228297 5.386596 7.783871 9.515639 10.675610 11.353690 11.634338 11.595287 11.306649 10.830365 10.219976 9.520687 8.769659 7.996504 7.223917 6.468408 5.741103 5.048556 4.393567 3.775967 3.193355 2.641781 2.116373 1.611904 1.123345 0.646468 0.178654 -0.279855 -0.724364 -1.145215 -1.535958 -1.800004 -1.851080 -1.851080 -1.851080 16918.430286 16918.430286 16918.430286 16891.336532 16590.478664 15858.963366 15174.757398 14590.884685 14135.801639 13772.356121 13451.110429 13188.474282 12967.806924 12739.283728 12456.385583 12088.882405 11664.103672 11215.840749 10771.176962 10351.125313 9947.506871 9535.011551 9110.816974 8681.910091 8245.989193 7801.424674 7332.436341 6815.008799 6249.960666 5697.395698 5212.400232 4792.146073 4403.755700 4019.145293 3614.973283 3156.959863 2611.634088 2021.215533 1526.539232 1206.772719 1031.388474 930.995686 833.647958 661.932649 372.790502 42.395783 -202.690024 -335.921604 -393.202854 -409.676546 -406.083415 -392.704624 -374.472118 -353.801425 -331.927701 -309.514048 -286.938735 -264.439204 -242.186626 -220.323504 -198.980868 -178.284464 -158.355393 -139.308225 -121.248161 -104.268045 -88.445634 -73.841352 -60.496691 -48.433321 -37.652958 -28.137947 -19.852531 -12.744671 -6.748324 -1.786035 2.228297 5.386596 7.783871 9.515639 10.675610 11.353690 11.634338 11.595287 11.306649 10.830365 10.219976 9.520687 8.769659 7.996504 7.223917 6.468408 5.741103 5.048556 4.393567 3.775967 3.193355 2.641781 2.116373 1.611904 1.123345 0.646468 0.178654 -0.279855 -0.724364 -1.145215 -1.535958 -1.800004 -1.851080 -1.851080 -1.851080 13238.979437 13238.979437 13238.979437 13261.568121 13350.884405 14008.815375 15093.231205 14483.442086 13973.715559 14444.710699 13707.710874 13298.429707 12459.951038 11281.214094 11608.252354 10952.913039 9105.692042 8557.788127 8539.451304 7171.637986 6381.027533 6035.187221 6375.162753 5644.452883 4275.930935 3443.042557 2953.084001 2547.547538 2260.131586 2164.735099 1402.362295 -815.424207 -1108.821934 -290.233901 225.207499 734.611290 1319.943585 353.179281 -1164.800716 -815.303961 -139.506144 623.844442 605.179450 -1234.442526 -1561.707189 -629.513840 -196.869925 -1677.722146 -2547.665905 -2122.144594 -1835.281120 -1668.496958 -1561.027784 -1485.214031 -1427.708492 -1382.514890 13432.948796 13432.948796 13432.948796 13437.343502 13247.579886 14345.377988 12618.539527 16514.458578 13865.769366 14332.317768 14481.468026 14577.651686 16043.722867 16744.859188 13186.720475 15014.624890 15613.647231 14810.401527 15183.779564 16426.886470 14116.880458 14394.918171 14735.188024 13522.735999 14185.394144 15701.632190 16497.068763 14016.661311 14901.891930 15363.083098 13643.420855 14370.704036 14796.828084 15545.674764 15322.135285 14051.713854 12710.023440 14988.925999 14305.587739 15640.108508 14604.233956 13915.301601 13948.336878 14628.539674 15764.406420 14731.827351 14827.471507 13986.400449 15644.598643 15135.289500 14980.920035 15058.526133 13766.147832 2478.521103 -56.538218 -1473.103795 13711.436530 13711.436530 13711.436530 13750.417466 13837.915775 14792.370919 12548.754192 14793.117940 12058.521109 13313.953765 15077.999619 12973.518344 13007.029859 14358.536750 11385.448915 12459.023356 14072.075025 15301.499570 12318.715066 15360.735685 15230.921133 15753.270431 13585.035122 14097.256187 15612.631300 15242.406725 14181.025997 14251.353474 14625.872060 14505.983730 14768.565163 13981.435684 14263.161458 14316.390221 13468.608601 15117.238973 14241.554224 14513.537094 14901.483722 14576.362956 14843.686778 14252.431216 14242.635083 14926.800610 14051.493883 14267.289318 13720.297557 14827.729707 15148.783268 16180.996537 15476.766436 15270.336462 7614.786716 12056.586285 -507.201982 -41.114376 13925.328695 13925.328695 13925.328695 13996.348759 14256.799266 14560.356155 12236.947977 16443.379594 14552.257262 13868.208808 13351.720712 13322.623407 13622.649531 14017.764703 13243.947915 14558.438136 13437.784730 14357.861893 15727.819525 15497.294887 14905.363967 14708.356349 14751.694296 14729.529516 11945.154027 13480.722960 12201.163870 14488.687723 14402.901999 13361.408523 14304.758447 14699.960204 14701.106293 14977.421793 15283.627958 14759.209318 14540.410991 12694.274699 12784.351526 15041.375904 14214.232251 13120.485001 14501.390251 14063.193102 15656.486467 15948.310061 14330.44002