<VTKFile type="PolyData">
<PolyData>
<Piece NumberOfPoints="8632" NumberOfVerts="8632" NumberOfLines="0" NumberOfStrips="0" NumberOfPolys="0">
<PointData>
<DataArray type="Float64" Name="Pressure" format="ascii">
 13093.763173 13093.763173 13093.763173 13091.250564 13062.617791 12985.493322 12878.736514 12723.024093 12504.094008 12211.362415 11839.057663 11396.168533 10905.117065 10379.938217 9824.751681 9248.166417 8659.250115 8070.538846 7494.965156 6934.977339 6389.518913 5859.276603 5347.503436 4856.832418 4380.702294 3898.960254 3391.031485 2857.376255 2317.503516 1788.276939 1290.504424 878.896685 606.629747 458.949853 380.909812 315.247818 209.887970 49.747664 -101.052499 -184.508369 -226.505819 -291.158548 -431.461661 -624.667679 -788.138373 -920.764193 -1084.880124 -1281.428551 -1432.005834 -1505.153934 -1521.586141 -1506.267089 -1474.892305 -1435.295574 -1391.084588 -1343.674374 -1293.564631 -1241.490852 -1188.499065 -1135.349383 -1082.464676 -1030.108065 -978.476665 -927.739042 -878.046299 -829.533783 -782.320357 -736.507674 -692.180136 -649.405502 -608.235964 -568.709464 -530.851076 -494.674363 -460.182617 -427.369987 -396.222475 -366.718825 -338.831323 -312.526523 -287.765917 -264.506569 -242.701716 -222.301338 -203.252707 -185.500906 -168.989330 -153.660151 -139.454752 -126.314134 -114.179285 -102.991512 -92.692743 -83.225792 -74.534584 -66.564361 -59.261851 -52.575436 -46.455328 -40.853856 -35.726023 -31.030827 -26.734451 -22.817475 -19.287755 -16.181363 -13.481378 -11.738846 -11.409413 -11.409413 -11.409413 13093.763173 13093.763173 13093.763173 13091.250564 13062.617791 12985.493322 12878.736514 12723.024093 12504.094008 12211.362415 11839.057663 11396.168533 10905.117065 10379.938217 9824.751681 9248.166417 8659.250115 8070.538846 7494.965156 6934.977339 6389.518913 5859.276603 5347.503436 4856.832418 4380.702294 3898.960254 3391.031485 2857.376255 2317.503516 1788.276939 1290.504424 878.896685 606.629747 458.949853 380.909812 315.247818 209.887970 49.747664 -101.052499 -184.508369 -226.505819 -291.158548 -431.461661 -624.667679 -788.138373 -920.764193 -1084.880124 -1281.428551 -1432.005834 -1505.153934 -1521.586141 -1506.267089 -1474.892305 -1435.295574 -1391.084588 -1343.674374 -1293.564631 -1241.490852 -1188.499065 -1135.349383 -1082.464676 -1030.108065 -978.476665 -927.739042 -878.046299 -829.533783 -782.320357 -736.507674 -692.180136 -649.405502 -608.235964 -568.709464 -530.851076 -494.674363 -460.182617 -427.369987 -396.222475 -366.718825 -338.831323 -312.526523 -287.765917 -264.506569 -242.701716 -222.301338 -203.252707 -185.500906 -168.989330 -153.660151 -139.454752 -126.314134 -114.179285 -102.991512 -92.692743 -83.225792 -74.534584 -66.564361 -59.261851 -52.575436 -46.455328 -40.853856 -35.726023 -31.030827 -26.734451 -22.817475 -19.287755 -16.181363 -13.481378 -11.738846 -11.409413 -11.409413 -11.409413 13093.763173 13093.763173 13093.763173 13091.250564 13062.617791 12985.493322 12878.736514 12723.024093 12504.094008 12211.362415 11839.057663 11396.168533 10905.117065 10379.938217 9824.751681 9248.166417 8659.250115 8070.538846 7494.965156 6934.977339 6389.518913 5859.276603 5347.503436 4856.832418 4380.702294 3898.960254 3391.031485 2857.376255 2317.503516 1788.276939 1290.504424 878.896685 606.629747 458.949853 380.909812 315.247818 209.887970 49.747664 -101.052499 -184.508369 -226.505819 -291.158548 -431.461661 -624.667679 -788.138373 -920.764193 -1084.880124 -1281.428551 -1432.005834 -1505.153934 -1521.586141 -1506.267089 -1474.892305 -1435.295574 -1391.084588 -1343.674374 -1293.564631 -1241.490852 -1188.499065 -1135.349383 -1082.464676 -1030.108065 -978.476665 -927.739042 -878.046299 -829.533783 -782.320357 -736.507674 -692.180136 -649.405502 -608.235964 -568.709464 -530.851076 -494.674363 -460.182617 -427.369987 -396.222475 -366.718825 -338.831323 -312.526523 -287.765917 -264.506569 -242.701716 -222.301338 -203.252707 -185.500906 -168.989330 -153.660151 -139.454752 -126.314134 -114.179285 -102.991512 -92.692743 -83.225792 -74.534584 -66.564361 -59.261851 -52.575436 -46.455328 -40.853856 -35.726023 -31.030827 -26.734451 -22.817475 -19.287755 -16.181363 -13.481378 -11.738846 -11.409413 -11.409413 -11.409413 13106.496862 13106.496862 13106.496862 13104.145328 13078.678328 13011.455772 12913.864687 12764.455896 12550.131894 12262.464848 11891.204794 11442.113757 10946.344054 10420.502263 9862.788430 9285.764856 8693.091809 8098.458519 7523.361971 6965.624939 6423.503645 5896.355761 5388.467160 4903.859381 4434.814818 3957.436717 3444.044862 2895.461414 2340.714175 1796.479374 1272.586142 836.531665 567.745203 438.627620 379.583337 331.015462 232.895036 45.770455 -126.651163 -198.220745 -217.750765 -263.632169 -402.527833 -638.440548 -798.639873 -914.621599 -1081.359415 -1318.876389 -1465.531781 -1526.708886 -1533.213809 -1512.495708 -1478.257107 -1437.248135 -1392.439943 -1344.804064 -1294.386212 -1241.932500 -1188.688668 -1135.422228 -1082.487484 -1030.109399 -978.468163 -927.725451 -878.029637 -829.515003 -782.299990 -736.486082 -692.157601 -649.382263 -608.212229 -568.685415 -530.826877 -494.650157 -460.158532 -427.346134 -396.198955 -366.695727 -338.808727 -312.504496 -287.744521 -264.485856 -242.681730 -222.282116 -203.234276 -185.483290 -168.972545 -153.644206 -139.439651 -126.299876 -114.165864 -102.978918 -92.680963 -83.214808 -74.524375 -66.554897 -59.253093 -52.567314 -46.447706 -40.846423 -35.718034 -31.020465 -26.717422 -22.784890 -19.230868 -16.107402 -13.419430 -11.688677 -11.361670 -11.361670 -11.361670 13247.629189 13247.629189 13247.629189 13250.537247 13280.932333 13333.766065 13343.204825 13259.801244 13087.972024 12876.480987 12531.190878 11988.609278 11426.392788 10900.411172 10313.439374 9756.747421 9119.854435 8432.204896 7867.382763 7346.228693 6846.651056 6357.915425 5902.954788 5504.370613 5130.504013 4716.951925 4133.022835 3373.808978 2626.743584 1943.799059 1058.040019 206.658748 79.310134 202.058397 368.365169 535.852391 626.968136 -0.837145 -553.386383 -374.395760 -118.067523 180.024929 -17.328613 -900.737813 -995.550208 -750.003623 -916.427670 -1767.868586 -1933.438910 -1765.390385 -1660.674991 -1580.016348 -1514.656469 -1458.430166 -1407.522609 -1358.814938 -1304.786436 -1246.553084 -1190.588744 -1136.134156 -1082.706871 -1030.119028 -978.381633 -927.588914 -877.862752 -829.327079 -782.096268 -736.270137 -691.932244 -649.149876 -607.974892 -568.444961 -530.584925 -494.408140 -459.917720 -427.107655 -395.963811 -366.464807 -338.582818 -312.284292 -287.530625 -264.278789 -242.481933 -222.089952 -203.050037 -185.307197 -168.804755 -153.484816 -139.288701 -126.157355 -114.031714 -102.853040 -92.563219 -83.105021 -74.422327 -66.460309 -59.165564 -52.486173 -46.371613 -40.772357 -35.638729 -30.917974 -26.547579 -22.445831 -18.527688 -15.139009 -12.654991 -11.112418 -10.836864 -10.836864 -10.836864 13461.837706 13461.837706 13461.837706 13478.143661 13522.011898 13742.855344 14177.045976 13911.521496 13687.224430 13722.990013 13678.748675 12807.729135 12023.511023 11668.401905 10844.822574 10627.967394 9918.187619 8728.650859 8432.507559 7880.767097 7573.110939 7088.898002 6687.245738 6642.307218 6364.178409 6102.059209 5442.287984 4143.539280 3017.673277 2344.266379 895.390906 -950.947831 -728.531398 -92.171578 358.226607 848.937921 1262.947651 -28.415286 -1190.522231 -643.126466 12.991517 805.680098 413.844344 -1370.634935 -1324.417065 -430.009850 -494.870099 -2197.843427 -2533.595783 -2052.335568 -1812.053625 -1659.578772 -1557.489775 -1483.445730 -1426.092643 -1380.041578 -1325.195415 -1254.810274 -1193.576298 -1137.244268 -1083.071508 -1030.175172 -978.300985 -927.440508 -877.675495 -829.114174 -781.864727 -736.024451 -691.675782 -648.885415 -607.704821 -568.171372 -530.309660 -494.132827 -459.643801 -426.836409 -395.696374 -366.202189 -338.325912 -312.033884 -287.287402 -264.043342 -242.254761 -221.871469 -202.840573 -185.107004 -168.614011 -153.303628 -139.117116 -125.995359 -113.879240 -102.709974 -92.429400 -82.980246 -74.306338 -66.352763 -59.065947 -52.393568 -46.284107 -40.685521 -35.541718 -30.783406 -26.304125 -21.896039 -17.015229 -13.355093 -11.456994 -10.311755 -10.101601 -10.101601 -10.101601 -12.631949 -10.987914 -10.116566 -9.998394 -9.998394 -9.998394 -10.895525 -9.956450 -9.366305 -9.285327 -9.285327 -9.285327 -8.796942 -8.476353 -8.212427 -8.175233 -8.175233 -8.175233 -7.378539 -7.259262 -7.156296 -7.141072 -7.141072 -7.141072 -6.286655 -6.246209 -6.212559 -6.207782 -6.207782 -6.207782 -5.392752 -5.383793 -5.378699 -5.378301 -5.378301 -5.378301 -4.636819 -4.640160 -4.646154 -4.647446 -4.647446 -4.647446 -3.987551 -3.995257 -4.005008 -4.006849 -4.006849 -4.006849 -3.426140 -3.434950 -3.445441 -3.447362 -3.447362 -3.447362 -2.939598 -2.948210 -2.958253 -2.960071 -2.960071 -2.960071 -2.517917 -2.525851 -2.535022 -2.536675 -2.536675 -2.536675 -2.152825 -2.159941 -2.168134 -2.169608 -2.169608 -2.169608 -1.837217 -1.843514 -1.850752 -1.852053 -1.852053 -1.852053 -1.564880 -1.570412 -1.576764 -1.577905 -1.577905 -1.577905 -1.330336 -1.335172 -1.340724 -1.341721 -1.341721 -1.341721 -1.128745 -1.132959 -1.137795 -1.138664 -1.138664 -1.138664 -0.955829 -0.959490 -0.963692 -0.964447 -0.964447 -0.964447 -0.807814 -0.810987 -0.814629 -0.815283 -0.815283 -0.815283 -0.681375 -0.684118 -0.687268 -0.687833 -0.687833 -0.687833 -0.573591 -0.575958 -0.578675 -0.579163 -0.579163 -0.579163 -0.481900 -0.483937 -0.486276 -0.486696 -0.486696 -0.486696 -0.404062 -0.405812 -0.407820 -0.408181 -0.408181 -0.408181 -0.338122 -0.339621 -0.341342 -0.341652 -0.341652 -0.341652 -0.282378 -0.283659 -0.285131 -0.285395 -0.285395 -0.285395 -0.235351 -0.236445 -0.237700 -0.237926 -0.237926 -0.237926 -0.195763 -0.196693 -0.197762 -0.197954 -0.197954 -0.197954 -0.162506 -0.163296 -0.164204 -0.164367 -0.164367 -0.164367 -0.134626 -0.135296 -0.136065 -0.136204 -0.136204 -0.136204 -0.111304 -0.111871 -0.112521 -0.112638 -0.112638 -0.112638 -0.091836 -0.092314 -0.092863 -0.092961 -0.092961 -0.092961 -0.075619 -0.076021 -0.076483 -0.076566 -0.076566 -0.076566 -0.062139 -0.062477 -0.062865 -0.062935 -0.062935 -0.062935 -0.050958 -0.051241 -0.051566 -0.051624 -0.051624 -0.051624 -0.041703 -0.041940 -0.042212 -0.042260 -0.042260 -0.042260 -0.034059 -0.034257 -0.034483 -0.034524 -0.034524 -0.034524 -0.027759 -0.027924 -0.028112 -0.028146 -0.028146 -0.028146 -0.022578 -0.022715 -0.022871 -0.022900 -0.022900 -0.022900 -0.018326 -0.018439 -0.018569 -0.018593 -0.018593 -0.018593 -0.014844 -0.014938 -0.015045 -0.015065 -0.015065 -0.015065 -0.011999 -0.012076 -0.012165 -0.012181 -0.012181 -0.012181 -0.009679 -0.009743 -0.009816 -0.009829 -0.009829 -0.009829 -0.007792 -0.007844 -0.007904 -0.007914 -0.007914 -0.007914 -0.006259 -0.006302 -0.006351 -0.006360 -0.006360 -0.006360 -0.005017 -0.005052 -0.005092 -0.005100 -0.005100 -0.005100 -0.004014 -0.004042 -0.004075 -0.004081 -0.004081 -0.004081 -0.003204 -0.003227 -0.003254 -0.003259 -0.003259 -0.003259 -0.002553 -0.002571 -0.002593 -0.002597 -0.002597 -0.002597 -0.002029 -0.002044 -0.002062 -0.002065 -0.002065 -0.002065 -0.001610 -0.001622 -0.001636 -0.001639 -0.001639 -0.001639 -0.001274 -0.001284 -0.001296 -0.001298 -0.001298 -0.001298 -0.001007 -0.001015 -0.001024 -0.001025 -0.001025 -0.001025 -0.000794 -0.000800 -0.000807 -0.000809 -0.000809 -0.000809 -0.000624 -0.000629 -0.000635 -0.000636 -0.000636 -0.000636 -0.000490 -0.000494 -0.000499 -0.000500 -0.000500 -0.000500 -0.000384 -0.000387 -0.000391 -0.000392 -0.000392 -0.000392 -0.000300 -0.000303 -0.000306 -0.000306 -0.000306 -0.000306 -0.000234 -0.000236 -0.000238 -0.000239 -0.000239 -0.000239 -0.000182 -0.000184 -0.000186 -0.000186 -0.000186 -0.000186 -0.000141 -0.000143 -0.000144 -0.000145 -0.000145 -0.000145 -0.000110 -0.000111 -0.000112 -0.000112 -0.000112 -0.000112 -0.000085 -0.000086 -0.000087 -0.000087 -0.000087 -0.000087 -0.000065 -0.000066 -0.000067 -0.000067 -0.000067 -0.000067 -0.000050 -0.000051 -0.000051 -0.000052 -0.000052 -0.000052 -0.000039 -0.000039 -0.000040 -0.000040 -0.000040 -0.000040 -0.000030 -0.000030 -0.000030 -0.000030 -0.000030 -0.000030 -0.000023 -0.000023 -0.000023 -0.000023 -0.000023 -0.000023 -0.000017 -0.000018 -0.000018 -0.000018 -0.000018 -0.000018 -0.000013 -0.000013 -0.000014 -0.000014 -0.000014 -0.000014 -0.000010 -0.000010 -0.000010 -0.000010 -0.000010 -0.000010 -0.000008 -0.000008 -0.000008 -0.000008 -0.000008 -0.000008 -0.000006 -0.000006 -0.000006 -0.000006 -0.000006 -0.000006 -0.000004 -0.000004 -0.000004 -0.000004 -0.000004 -0.000004 -0.000003 -0.000003 -0.000003 -0.000003 -0.000003 -0.000003 -0.000002 -0.000003 -0.000003 -0.000003 -0.000003 -0.000003 -0.000002 -0.000002 -0.000002 -0.000002 -0.000002 -0.000002 -0.000001 -0.000001 -0.000001 -0.000001 -0.000001 -0.000001 -0.000001 -0.000001 -0.000001 -0.000001 -0.000001 -0.000001 -0.000001 -0.000001 -0.000001 -0.000001 -0.000001 -0.000001 -0.000001 -0.000001 -0.000001 -0.000001 -0.000001 -0.000001 -0.000000 -0.000000 -0.000000 -0.000000 -0.000000 -0.000000 -0.000000 -0.000000 -0.000000 -0.000000 -0.000000 -0.000000 -0.000000 -0.000000 -0.000000 -0.000000 -0.000000 -0.000000 -0.000000 -0.000000 -0.000000 -0.000000 -0.000000 -0.000000 -0.000000 -0.000000 -0.000000 -0.000000 -0.000000 -0.000000 -0.000000 -0.000000 -0.000000 -0.000000 -0.000000 -0.000000 -0.000000 -0.000000 -0.000000 -0.000000 -0.000000 -0.000000 -0.000000 -0.000000 -0.000000 -0.000000 -0.000000 -0.000000 -0.000000 -0.000000 -0.000000 -0.000000 -0.000000 -0.000000 -0.000000 -0.000000 -0.000000 -0.000000 -0.000000 -0.000000 -0.000000 -0.000000 -0.000000 -0.000000 -0.000000 -0.000000 -0.000000 -0.000000 -0.000000 -0.000000 -0.000000 -0.000000 -0.000000 -0.000000 -0.000000 -0.000000 -0.000000 -0.000000 -0.000000 -0.000000 -0.000000 -0.000000 -0.000000 -0.000000 -0.000000 -0.000000 -0.000000 -0.000000 -0.000000 -0.000000 -0.000000 -0.000000 -0.000000 -0.000000 -0.000000 -0.000000 -0.000000 -0.000000 -0.000000 -0.000000 -0.000000 -0.000000 0.000000 -0.000000 0.000000 0.000000 0.000000 0.000000 0.000000 0.000000 0.000000 0.000000 0.000000 0.000000 0.000000 0.000000 0.000000 0.000000 0.000000 0.000000 0.000000 0.000000 0.000000 0.000000 0.000000 0.000000 0.000000 0.000000 0.000000 0.000000 0.000000 0.000000 0.000000 0.000000 0.000000 0.000000 0.000000 0.000000 0.000000 0.000000 0.000000 0.000000 0.000000 0.000000 0.000000 0.000000 0.000000 0.000000 0.000000 0.000000 0.000000 0.000000 0.000000 0.000000 0.000000 0.000000 0.000000 0.000000 0.000000 0.000000 0.000000 0.000000 0.000000 0.000000 0.000000 0.000000 0.000000 0.000000 0.000000 0.000000 0.000000 0.000000 0.000000 0.000000 0.000000 0.000000 0.000000 0.000000 0.000000 0.000000 0.000000 0.000000 0.000000 0.000000 0.000000 0.000000 0.000001 0.000001 0.000001 0.000001 0.000001 0.000001 0.000001 0.000001 0.000001 0.000001 0.000001 0.000001 0.000002 0.000002 0.000002 0.000002 0.000002 0.000002 0.000002 0.000002 0.000002 0.000002 0.000002 0.000002 0.000004 0.000004 0.000004 0.000004 0.000004 0.000004 0.000005 0.000005 0.000005 0.000005 0.000005 0.000005 0.000008 0.000008 0.000008 0.000008 0.000008 0.000008 0.000011 0.000011 0.000012 0.000012 0.000012 0.000012 0.000016 0.000017 0.000017 0.000017 0.000017 0.000017 0.000024 0.000024 0.000025 0.000025 0.000025 0.000025 0.000034 0.000035 0.000035 0.000035 0.000035 0.000035 0.000048 0.000049 0.000050 0.000050 0.000050 0.000050 0.000069 0.000070 0.000071 0.000072 0.000072 0.000072 0.000097 0.000099 0.000100 0.000101 0.000101 0.000101 0.000136 0.000138 0.000141 0.000141 0.000141 0.000141 0.000190 0.000193 0.000196 0.000197 0.000197 0.000197 0.000263 0.000267 0.000272 0.000272 0.000272 0.000272 0.000363 0.000368 0.000374 0.000375 0.000375 0.000375 0.000497 0.000503 0.000511 0.000512 0.000512 0.000512 0.000676 0.000685 0.000695 0.000696 0.000696 0.000696 0.000914 0.000926 0.000939 0.000941 0.000941 0.000941 0.001229 0.001243 0.001260 0.001263 0.001263 0.001263 0.001642 0.001660 0.001681 0.001685 0.001685 0.001685 0.002179 0.002202 0.002229 0.002234 0.002234 0.002234 0.002874 0.002903 0.002936 0.002942 0.002942 0.002942 0.003766 0.003802 0.003843 0.003851 0.003851 0.003851 0.004903 0.004948 0.004998 0.005008 0.005008 0.005008 0.006342 0.006396 0.006458 0.006469 0.006469 0.006469 0.008148 0.008214 0.008289 0.008302 0.008302 0.008302 0.010399 0.010477 0.010567 0.010583 0.010583 0.010583 0.013182 0.013275 0.013381 0.013400 0.013400 0.013400 0.016594 0.016703 0.016827 0.016850 0.016850 0.016850 0.020744 0.020870 0.021014 0.021040 0.021040 0.021040 0.025748 0.025892 0.026056 0.026086 0.026086 0.026086 0.031727 0.031889 0.032075 0.032109 0.032109 0.032109 0.038806 0.038987 0.039193 0.039230 0.039230 0.039230 0.047107 0.047304 0.047529 0.047569 0.047569 0.047569 0.056740 0.056951 0.057191 0.057235 0.057235 0.057235 0.067798 0.068019 0.068271 0.068316 0.068316 0.068316 0.080346 0.080571 0.080826 0.080872 0.080872 0.080872 0.094407 0.094626 0.094876 0.094921 0.094921 0.094921 0.109945 0.110150 0.110382 0.110423 0.110423 0.110423 0.126856 0.127031 0.127230 0.127266 0.127266 0.127266 0.144941 0.145071 0.145218 0.145244 0.145244 0.145244 0.163893 0.163960 0.164033 0.164046 0.164046 0.164046 0.183276 0.183257 0.183231 0.183226 0.183226 0.183226 0.202504 0.202374 0.202221 0.202194 0.202194 0.202194 0.220825 0.220558 0.220247 0.220191 0.220191 0.220191 0.237305 0.236872 0.236372 0.236282 0.236282 0.236282 0.250819 0.250191 0.249466 0.249336 0.249336 0.249336 0.260042 0.259189 0.258208 0.258031 0.258031 0.258031 0.263453 0.262347 0.261078 0.260850 0.260850 0.260850 0.259345 0.257962 0.256376 0.256091 0.256091 0.256091 0.245844 0.244164 0.242239 0.241893 0.241893 0.241893 0.220943 0.218952 0.216671 0.216262 0.216262 0.216262 0.182541 0.180233 0.177592 0.177118 0.177118 0.177118 0.128502 0.125882 0.122885 0.122348 0.122348 0.122348 0.056721 0.053805 0.050470 0.049872 0.049872 0.049872 -0.034798 -0.037982 -0.041621 -0.042273 -0.042273 -0.042273 -0.147854 -0.151263 -0.155157 -0.155854 -0.155854 -0.155854 -0.283955 -0.287530 -0.291614 -0.292345 -0.292345 -0.292345 -0.444217 -0.447887 -0.452077 -0.452826 -0.452826 -0.452826 -0.629268 -0.632946 -0.637144 -0.637895 -0.637895 -0.637895 -0.839153 -0.842742 -0.846835 -0.847567 -0.847567 -0.847567 -1.073252 -1.076641 -1.080504 -1.081195 -1.081195 -1.081195 -1.330203 -1.333276 -1.336777 -1.337403 -1.337403 -1.337403 -1.607860 -1.610496 -1.613497 -1.614033 -1.614033 -1.614033 -1.903260 -1.905338 -1.907701 -1.908123 -1.908123 -1.908123 -2.212626 -2.214031 -2.215623 -2.215907 -2.215907 -2.215907 -2.531402 -2.532027 -2.532728 -2.532853 -2.532853 -2.532853 -2.854315 -2.854069 -2.853776 -2.853722 -2.853722 -2.853722 -3.175480 -3.174290 -3.172920 -3.172674 -3.172674 -3.172674 -3.488526 -3.486345 -3.483844 -3.483396 -3.483396 -3.483396 -3.786763 -3.783571 -3.779916 -3.779261 -3.779261 -3.779261 -4.063366 -4.059173 -4.054377 -4.053518 -4.053518 -4.053518 -4.311581 -4.306430 -4.300542 -4.299487 -4.299487 -4.299487 -4.524942 -4.518909 -4.512016 -4.510781 -4.510781 -4.510781 -4.697490 -4.690685 -4.682910 -4.681518 -4.681518 -4.681518 -4.823984 -4.816547 -4.808050 -4.806529 -4.806529 -4.806529 -4.900089 -4.892194 -4.883171 -4.881555 -4.881555 -4.881555 -4.922538 -4.914395 -4.905080 -4.903411 -4.903411 -4.903411 -4.889239 -4.881112 -4.871791 -4.870119 -4.870119 -4.870119 -4.799314 -4.791567 -4.782620 -4.781009 -4.781009 -4.781009 -4.653009 -4.646221 -4.638231 -4.636777 -4.636777 -4.636777 -4.451385 -4.446637 -4.440649 -4.439520 -4.439520 -4.439520 -4.195557 -4.195114 -4.193256 -4.192789 -4.192789 -4.192789 -3.884917 -3.893909 -3.900825 -3.901733 -3.901733 -3.901733 -3.512915 -3.543773 -3.569746 -3.573521 -3.573521 -3.573521 -3.056173 -3.142391 -3.209104 -3.218370 -3.218370 -3.218370 -2.437052 -2.695440 -2.831654 -2.849755 -2.849755 -2.849755 16206.295639 16206.295639 16206.295639 16260.027429 17143.207287 16850.449700 14436.182146 15098.754389 14555.090115 13508.216232 14278.276603 13480.416555 14743.491967 14317.077319 12755.026024 14541.487524 14211.913148 13027.237364 10764.650991 10859.073830 10267.850562 9141.388018 9773.865739 8320.461952 8714.526964 8480.550147 7529.453060 3891.162958 4100.866066 4698.948961 4755.987038 4704.653231 4758.531027 5468.398029 7024.417461 514.424980 -3861.685436 -1217.612682 65.475293 733.561754 1273.708707 2183.332070 4288.338658 1300.250284 -3836.383522 -2587.642654 -1330.262127 -841.479394 -616.019537 -506.158267 -446.550782 -408.710207 -380.169041 -355.531320 -332.503036 -310.148633 -288.130183 -266.373900 -244.921716 -223.863956 -203.308363 -183.365711 -164.142938 -145.739577 -128.245513 -111.739249 -96.286404 -81.938430 -68.731629 -56.686555 -45.807867 -36.084647 -27.491196 -19.988238 -13.524487 -8.038489 -3.460652 0.284627 3.276830 5.597250 7.327071 8.545635 9.328953 9.748468 9.870103 9.753575 9.451976 9.011593 8.471944 7.865998 7.220546 6.556691 5.890411 5.233190 4.592663 3.973255 3.376804 2.803114 2.250407 1.715588 1.194125 0.679128 0.158469 -0.392676 -1.050601 -1.724471 -2.170631 -2.421947 -2.466992 -2.466992 -2.466992 16277.753041 16277.753041 16277.753041 16274.796170 16558.409897 16510.509690 14942.776919 14745.338189 14367.141766 13445.808464 13560.825634 13399.587302 13323.088321 12946.996586 12563.734353 12794.079967 12528.451749 11986.371493 10905.251292 10104.147868 9752.045563 9224.126287 8959.439645 8330.313465 8014.335071 7745.710363 7034.874166 5945.171686 5313.003493 5077.804073 4892.618846 4693.602382 4527.562576 4422.909912 3978.579114 2185.028981 658.652306 501.921757 758.494751 976.507853 1176.598778 1449.453276 1673.235649 653.342820 -932.514434 -1005.511265 -793.619333 -612.527179 -514.571600 -460.153306 -425.451897 -398.958044 -375.637025 -353.419817 -331.522708 -309.702957 -287.942617 -266.316073 -244.933811 -223.917791 -203.390299 -183.468747 -164.263045 -145.873995 -128.391952 -111.895527 -96.450301 -82.107648 -68.903814 -56.859347 -45.978960 -36.251858 -27.652523 -20.141911 -13.669010 -8.172667 -3.583606 0.173462 3.177712 5.510156 7.251720 8.481529 9.275409 9.704665 9.835119 9.726427 9.431655 8.997096 8.462302 7.860297 7.217946 6.556435 5.891839 5.235740 4.595873 3.976774 3.380401 2.806715 2.254186 1.720190 1.201208 0.692673 0.188243 -0.321329 -0.838463 -1.335012 -1.759234 -2.030958 -2.080299 -2.080299 -2.080299 16298.639562 16298.639562 16298.639562 16285.232200 16127.527922 15699.981253 15180.941556 14758.388103 14369.742689 13992.346859 13694.546571 13410.872428 13102.375439 12752.095154 12406.311410 12096.079443 11740.335035 11293.175229 10744.720224 10173.089195 9638.434403 9133.674771 8648.525958 8160.181774 7711.811927 7274.852781 6773.798121 6220.685274 5732.887037 5341.411189 5004.933855 4684.249040 4352.811790 3969.935576 3445.225814 2725.515109 2022.231422 1566.286096 1322.328513 1190.586866 1108.936808 1026.756343 850.044947 475.009628 26.775028 -251.816059 -369.418825 -411.602420 -421.764388 -417.528157 -405.808339 -389.853354 -371.394407 -351.437144 -330.599891 -309.284076 -287.769570 -266.268804 -244.956194 -223.983217 -203.485734 -183.587344 -164.400723 -146.027831 -128.559433 -112.074207 -96.637665 -82.301084 -69.100641 -57.056874 -46.174559 -36.443038 -27.836998 -20.317662 -13.834328 -8.326187 -3.724319 0.046203 3.064209 5.410383 7.165363 8.408020 9.213975 9.654370 9.794914 9.695191 9.408237 8.980353 8.451126 7.853645 7.214857 6.556045 5.893390 5.238587 4.599487 3.980746 3.384453 2.810734 2.258305 1.724995 1.208226 0.705502 0.215027 -0.263104 -0.724489 -1.158037 -1.554519 -1.821199 -1.872598 -1.872598 -1.872598 16300.134517 16300.134517 16300.134517 16284.443226 16108.942471 15661.193765 15197.400443 14770.294852 14380.350328 14020.808666 13704.584551 13400.113772 13076.811619 12728.212961 12376.136585 12029.727005 11654.274661 11217.414469 10708.143896 10163.111056 9627.844013 9114.052304 8617.626103 8133.502232 7673.354037 7220.692101 6740.071103 6240.563841 5776.395444 5375.422194 5021.157515 4682.870799 4329.273006 3919.929198 3404.050150 2780.221790 2166.788697 1700.141950 1402.756019 1222.967779 1100.520536 975.105187 776.484003 463.205059 108.651046 -159.213244 -310.679392 -381.292825 -407.408816 -410.876777 -402.732674 -388.424773 -370.727301 -351.124659 -330.454172 -309.218011 -287.742668 -266.262202 -244.961050 -223.995320 -203.503001 -183.608666 -164.425420 -146.055401 -128.589437 -112.106213 -96.671224 -82.335729 -69.135893 -57.092253 -46.209594 -36.477283 -27.870045 -20.349148 -13.863949 -8.353697 -3.749538 0.023392 3.043859 5.392491 7.149872 8.394830 9.202948 9.645339 9.787690 9.689575 9.404023 8.977336 8.449109 7.852440 7.214292 6.555965 5.893660 5.239090 4.600129 3.981452 3.385173 2.811444 2.259022 1.725810 1.209375 0.707538 0.219141 -0.254760 -0.709420 -1.135937 -1.529207 -1.793644 -1.844635 -1.844635 -1.844635 16300.134517 16300.134517 16300.134517 16284.443226 16108.942471 15661.193765 15197.400443 14770.294852 14380.350328 14020.808666 13704.584551 13400.113772 13076.811619 12728.212961 12376.136585 12029.727005 11654.274661 11217.414469 10708.143896 10163.111056 9627.844013 9114.052304 8617.626103 8133.502232 7673.354037 7220.692101 6740.071103 6240.563841 5776.395444 5375.422194 5021.157515 4682.870799 4329.273006 3919.929198 3404.050150 2780.221790 2166.788697 1700.141950 1402.756019 1222.967779 1100.520536 975.105187 776.484003 463.205059 108.651046 -159.213244 -310.679392 -381.292825 -407.408816 -410.876777 -402.732674 -388.424773 -370.727301 -351.124659 -330.454172 -309.218011 -287.742668 -266.262202 -244.961050 -223.995320 -203.503001 -183.608666 -164.425420 -146.055401 -128.589437 -112.106213 -96.671224 -82.335729 -69.135893 -57.092253 -46.209594 -36.477283 -27.870045 -20.349148 -13.863949 -8.353697 -3.749538 0.023392 3.043859 5.392491 7.149872 8.394830 9.202948 9.645339 9.787690 9.689575 9.404023 8.977336 8.449109 7.852440 7.214292 6.555965 5.893660 5.239090 4.600129 3.981452 3.385173 2.811444 2.259022 1.725810 1.209375 0.707538 0.219141 -0.254760 -0.709420 -1.135937 -1.529207 -1.793644 -1.844635 -1.844635 -1.844635 16300.134517 16300.134517 16300.134517 16284.443226 16108.942471 15661.193765 15197.400443 14770.294852 14380.350328 14020.808666 13704.584551 13400.113772 13076.811619 12728.212961 12376.136585 12029.727005 11654.274661 11217.414469 10708.143896 10163.111056 9627.844013 9114.052304 8617.626103 8133.502232 7673.354037 7220.692101 6740.071103 6240.563841 5776.395444 5375.422194 5021.157515 4682.870799 4329.273006 3919.929198 3404.050150 2780.221790 2166.788697 1700.141950 1402.756019 1222.967779 1100.520536 975.105187 776.484003 463.205059 108.651046 -159.213244 -310.679392 -381.292825 -407.408816 -410.876777 -402.732674 -388.424773 -370.727301 -351.124659 -330.454172 -309.218011 -287.742668 -266.262202 -244.961050 -223.995320 -203.503001 -183.608666 -164.425420 -146.055401 -128.589437 -112.106213 -96.671224 -82.335729 -69.135893 -57.092253 -46.209594 -36.477283 -27.870045 -20.349148 -13.863949 -8.353697 -3.749538 0.023392 3.043859 5.392491 7.149872 8.394830 9.202948 9.645339 9.787690 9.689575 9.404023 8.977336 8.449109 7.852440 7.214292 6.555965 5.893660 5.239090 4.600129 3.981452 3.385173 2.811444 2.259022 1.725810 1.209375 0.707538 0.219141 -0.254760 -0.709420 -1.135937 -1.529207 -1.793644 -1.844635 -1.844635 -1.844635 13494.373902 13494.373902 13494.373902 13514.203224 13493.395438 13784.478765 14391.487811 14017.067378 13758.776755 13892.640240 13938.658687 12993.622699 12153.303027 11927.982194 10958.947238 10877.795015 10211.848470 8860.448040 8675.861291 8068.805334 7791.621636 7265.169289 6862.970279 6898.417343 6588.968323 6418.541458 5852.446952 4421.075594 3054.098711 2424.043031 924.448671 -1078.755184 -823.485590 -115.023764 357.654399 873.278837 1306.991405 -24.315494 -1227.475227 -663.492188 23.031982 843.697723 424.529434 -1411.899855 -1349.720202 -400.498813 -440.356047 -2194.223604 -2565.638955 -2073.787398 -1823.120477 -1665.341385 -1560.585034 -1485.257753 -1427.503964 -1382.150239 13732.294731 13732.294731 13732.294731 13723.515503 13269.819702 14143.934808 14523.574781 18593.408187 15838.522844 17908.934049 17479.757455 16635.679648 18995.337096 19378.921768 15629.569070 17319.969212 17128.040995 17348.024260 17260.464340 18342.613867 16115.316425 17184.126900 17456.126474 18394.872670 16665.867115 18429.847222 18700.151229 16055.996168 17662.518098 16838.095265 17811.448793 16893.690217 18032.223239 16024.571560 16303.558118 18743.021532 15055.448661 17088.778959 18596.001592 16818.473756 17964.875328 15628.631067 18056.553353 15972.418473 17546.690838 16716.331191 18248.603967 17441.599696 18114.625357 15293.434718 16162.951788 17187.778135 18824.504478 3388.664479 -169.772112 -1694.598575 14102.494235 14102.494235 14102.494235 14121.887323 13818.770706 14862.206573 14814.825338 16954.809407 13443.203729 15233.664560 16853.176866 16098.024892 16461.196675 16706.237684 14679.052493 15127.890168 16132.811406 18451.454244 15604.828276 17074.911751 17685.346039 17826.410514 17258.056811 18180.028255 17362.558682 17886.740678 16510.249810 17761.417489 16242.853597 16314.061702 18148.118500 16500.524320 16792.692226 17748.678473 17382.742017 18491.160891 16970.254884 16902.185325 17578.820265 18524.583473 19779.917448 17659.368072 16636.701937 17272.926208 16261.987102 17136.762758 17415.386813 17310.473829 17171.481958 16292.671476 16510.013685 16898.798444 8755.664328 12629.516923 -642.256476 -54.878392 14428.038068 14428.038068 14428.038068 14439.470360 14037.776498 15045.151822 13921.307455 16948.135001 16876.342799 16842.397914 14482.453162 15348.101630 16402.170330 16570.632692 15943.247380 16848.849642 16568.418032 16883.493584 17048.148158 16966.413522 18883.624289 16192.894708 16696.963398 16844.246200 17967.670059 17866.050343 15532.854180 15037.345548 17287.341076 16609.932010 16403.214088 16932.737138 17225.026426 16972.148427 17023.963733 17761.740736 17670.660123 17504.917515 16644.613710 15952.805341 16951.605287 17698.737331 16749.702506 17587.189468 18244.772944 17416.441591 18153.171