<VTKFile type="PolyData">
<PolyData>
<Piece NumberOfPoints="8632" NumberOfVerts="8632" NumberOfLines="0" NumberOfStrips="0" NumberOfPolys="0">
<PointData>
<DataArray type="Float64" Name="Pressure" format="ascii">
 3116.454065 3116.454065 3116.454065 3176.987259 3828.318859 5369.010119 6672.284496 7607.511315 8144.346769 8346.560376 8325.365370 8175.216213 7956.594191 7704.666040 7439.136712 7171.114035 6905.075137 6641.343832 6378.884261 6117.291419 5857.031073 5598.967248 5344.567977 5095.811648 4854.571678 4621.915696 4397.677155 4180.580665 3968.873211 3761.048668 3556.260276 3354.361772 3155.735648 2960.958975 2770.512899 2584.686932 2403.618469 2227.350029 2055.822509 1888.837826 1726.079009 1567.224583 1411.977408 1259.955795 1111.575839 969.483365 836.279388 711.415408 601.862210 507.839453 354.977368 99.340861 -156.681006 -437.637224 -742.414324 -900.511298 -853.779785 -688.799783 -502.541542 -344.343848 -226.283747 -144.169638 -89.439014 -54.047188 -31.761642 -18.109914 -9.996687 -5.332770 -2.745699 -1.363283 -0.652401 -0.300807 -0.133600 -0.057147 -0.023539 -0.009336 -0.003565 -0.001310 -0.000464 -0.000158 -0.000052 -0.000016 -0.000005 -0.000001 -0.000000 -0.000000 -0.000000 -0.000000 -0.000000 -0.000000 -0.000000 -0.000000 -0.000000 -0.000000 -0.000000 -0.000000 -0.000000 -0.000000 -0.000000 -0.000000 -0.000000 -0.000000 -0.000000 -0.000000 -0.000000 -0.000000 -0.000000 -0.000000 -0.000000 -0.000000 -0.000000 3116.454065 3116.454065 3116.454065 3176.987259 3828.318859 5369.010119 6672.284496 7607.511315 8144.346769 8346.560376 8325.365370 8175.216213 7956.594191 7704.666040 7439.136712 7171.114035 6905.075137 6641.343832 6378.884261 6117.291419 5857.031073 5598.967248 5344.567977 5095.811648 4854.571678 4621.915696 4397.677155 4180.580665 3968.873211 3761.048668 3556.260276 3354.361772 3155.735648 2960.958975 2770.512899 2584.686932 2403.618469 2227.350029 2055.822509 1888.837826 1726.079009 1567.224583 1411.977408 1259.955795 1111.575839 969.483365 836.279388 711.415408 601.862210 507.839453 354.977368 99.340861 -156.681006 -437.637224 -742.414324 -900.511298 -853.779785 -688.799783 -502.541542 -344.343848 -226.283747 -144.169638 -89.439014 -54.047188 -31.761642 -18.109914 -9.996687 -5.332770 -2.745699 -1.363283 -0.652401 -0.300807 -0.133600 -0.057147 -0.023539 -0.009336 -0.003565 -0.001310 -0.000464 -0.000158 -0.000052 -0.000016 -0.000005 -0.000001 -0.000000 -0.000000 -0.000000 -0.000000 -0.000000 -0.000000 -0.000000 -0.000000 -0.000000 -0.000000 -0.000000 -0.000000 -0.000000 -0.000000 -0.000000 -0.000000 -0.000000 -0.000000 -0.000000 -0.000000 -0.000000 -0.000000 -0.000000 -0.000000 -0.000000 -0.000000 -0.000000 3116.454065 3116.454065 3116.454065 3176.987259 3828.318859 5369.010119 6672.284496 7607.511315 8144.346769 8346.560376 8325.365370 8175.216213 7956.594191 7704.666040 7439.136712 7171.114035 6905.075137 6641.343832 6378.884261 6117.291419 5857.031073 5598.967248 5344.567977 5095.811648 4854.571678 4621.915696 4397.677155 4180.580665 3968.873211 3761.048668 3556.260276 3354.361772 3155.735648 2960.958975 2770.512899 2584.686932 2403.618469 2227.350029 2055.822509 1888.837826 1726.079009 1567.224583 1411.977408 1259.955795 1111.575839 969.483365 836.279388 711.415408 601.862210 507.839453 354.977368 99.340861 -156.681006 -437.637224 -742.414324 -900.511298 -853.779785 -688.799783 -502.541542 -344.343848 -226.283747 -144.169638 -89.439014 -54.047188 -31.761642 -18.109914 -9.996687 -5.332770 -2.745699 -1.363283 -0.652401 -0.300807 -0.133600 -0.057147 -0.023539 -0.009336 -0.003565 -0.001310 -0.000464 -0.000158 -0.000052 -0.000016 -0.000005 -0.000001 -0.000000 -0.000000 -0.000000 -0.000000 -0.000000 -0.000000 -0.000000 -0.000000 -0.000000 -0.000000 -0.000000 -0.000000 -0.000000 -0.000000 -0.000000 -0.000000 -0.000000 -0.000000 -0.000000 -0.000000 -0.000000 -0.000000 -0.000000 -0.000000 -0.000000 -0.000000 -0.000000 3248.880412 3248.880412 3248.880412 3311.939948 4016.402109 5690.427585 7078.380444 8051.349446 8599.434761 8796.561341 8770.300002 8615.952621 8392.722991 8139.637465 7872.582339 7601.294891 7327.820221 7052.230937 6775.434805 6500.366108 6229.717523 5964.498906 5705.350280 5452.853636 5207.575593 4969.697894 4738.600236 4512.960856 4291.328575 4072.734392 3856.912703 3644.311538 3435.980311 3233.029668 3036.078159 2845.124494 2659.703981 2479.135513 2302.668252 2129.441582 1958.437860 1788.638506 1619.282393 1449.427314 1279.484289 1113.928933 959.551256 811.260295 676.440483 575.199208 406.235959 89.230822 -162.454765 -448.813954 -823.246030 -1001.931586 -923.372321 -724.317402 -517.743484 -350.257411 -228.367684 -144.796766 -89.558488 -54.014275 -31.699583 -18.056046 -9.958429 -5.308258 -2.731069 -1.355040 -0.647989 -0.298556 -0.132502 -0.056635 -0.023311 -0.009238 -0.003525 -0.001294 -0.000458 -0.000156 -0.000051 -0.000016 -0.000005 -0.000001 -0.000000 -0.000000 -0.000000 -0.000000 -0.000000 -0.000000 -0.000000 0.000000 -0.000000 0.000000 -0.000000 0.000000 0.000000 -0.000000 0.000000 -0.000000 0.000000 0.000000 -0.000000 -0.000000 -0.000000 -0.000000 -0.000000 -0.000000 -0.000000 -0.000000 -0.000000 4726.794313 4726.794313 4726.794313 4848.036133 6303.821997 9740.481155 12231.657890 13606.992609 14028.429783 14054.141988 14088.920950 13867.569757 13569.951075 13297.062933 13073.713920 12857.187509 12568.826003 12173.110710 11703.322564 11232.801166 10811.135276 10456.146597 10166.055915 9912.278300 9658.087137 9372.751655 9041.360422 8668.662732 8273.350722 7876.357044 7492.611213 7135.588934 6812.879212 6525.806839 6271.039472 6040.062307 5819.759872 5595.237277 5353.933239 5086.382322 4784.790580 4440.849997 4052.288365 3612.732005 3117.768562 2603.113767 2159.499294 1742.607063 1267.655720 1224.072235 1265.668427 -557.180226 -89.266910 -204.207526 -1965.882908 -2244.626461 -1703.298495 -1079.946145 -667.090423 -407.654652 -248.437354 -150.766135 -90.643955 -53.649178 -31.069337 -17.516462 -9.577421 -5.065005 -2.586289 -1.273677 -0.604549 -0.276445 -0.121751 -0.051635 -0.021084 -0.008288 -0.003136 -0.001142 -0.000400 -0.000135 -0.000044 -0.000014 -0.000004 -0.000001 -0.000000 -0.000000 -0.000000 -0.000000 -0.000000 -0.000000 -0.000000 -0.000000 -0.000000 -0.000000 0.000000 -0.000000 -0.000000 -0.000000 -0.000000 0.000000 -0.000000 -0.000000 0.000000 -0.000000 -0.000000 -0.000000 -0.000000 -0.000000 -0.000000 -0.000000 -0.000000 6935.729507 6935.729507 6935.729507 7135.042613 10425.981357 18225.836319 22076.982492 23560.992390 23684.557103 22291.005351 22519.181505 22007.276905 21300.705110 20973.298429 20603.060577 20780.460664 20758.743355 20443.867868 19822.553697 19142.916286 18491.420527 17988.187945 17697.014522 17521.710701 17337.669798 16991.616034 16402.205111 15612.878634 14754.638549 13950.643521 13264.909911 12728.407923 12319.511080 11987.916232 11693.009663 11396.952560 11060.457627 10645.148279 10124.085280 9485.043353 8733.881492 7869.330804 6941.602194 5920.808881 4817.952816 3501.343204 2877.206463 2008.188855 556.187860 322.733485 2020.424464 -2696.519002 -16.951689 382.878141 -4223.190139 -4232.105325 -2987.537371 -1653.906285 -898.651260 -497.179713 -280.725863 -161.228736 -93.303639 -53.792562 -30.577434 -16.997866 -9.187266 -4.809589 -2.432800 -1.187241 -0.558494 -0.253111 -0.110475 -0.046428 -0.018784 -0.007315 -0.002742 -0.000989 -0.000343 -0.000115 -0.000037 -0.000011 -0.000003 -0.000001 -0.000000 -0.000000 -0.000000 -0.000000 -0.000000 -0.000000 0.000000 0.000000 0.000000 0.000000 0.000000 0.000000 0.000000 0.000000 0.000000 0.000000 0.000000 0.000000 0.000000 0.000000 -0.000000 -0.000000 -0.000000 -0.000000 -0.000000 -0.000000 -0.000000 -0.000000 -0.000000 -0.000000 -0.000000 -0.000000 -0.000000 -0.000000 -0.000000 -0.000000 -0.000000 -0.000000 -0.000000 -0.000000 -0.000000 -0.000000 -0.000000 -0.000000 -0.000000 -0.000000 -0.000000 -0.000000 -0.000000 -0.000000 -0.000000 -0.000000 -0.000000 -0.000000 -0.000000 -0.000000 -0.000000 -0.000000 -0.000000 -0.000000 -0.000000 -0.000000 -0.000000 -0.000000 -0.000000 -0.000000 -0.000000 -0.000000 -0.000000 -0.000000 -0.000000 -0.000000 -0.000000 -0.000000 -0.000000 -0.000000 -0.000000 -0.000000 -0.000000 -0.000000 -0.000000 -0.000000 -0.000000 -0.000000 -0.000000 -0.000000 -0.000000 -0.000000 -0.000000 -0.000000 -0.000000 -0.000000 -0.000000 -0.000000 -0.000000 -0.000000 -0.000000 -0.000000 -0.000000 -0.000000 -0.000000 -0.000000 -0.000000 -0.000000 -0.000000 -0.000000 -0.000000 -0.000000 -0.000000 -0.000000 -0.000000 -0.000000 -0.000000 -0.000000 -0.000000 -0.000000 -0.000000 -0.000000 -0.000000 -0.000000 -0.000000 -0.000000 -0.000000 -0.000000 -0.000000 -0.000000 -0.000000 -0.000000 -0.000000 -0.000000 -0.000000 -0.000000 -0.000000 -0.000000 -0.000000 -0.000000 -0.000000 -0.000000 -0.000000 -0.000000 -0.000000 -0.000000 -0.000000 -0.000000 -0.000000 -0.000000 -0.000000 -0.000000 -0.000000 -0.000000 -0.000000 -0.000000 -0.000000 -0.000000 -0.000000 -0.000000 -0.000000 -0.000000 -0.000000 -0.000000 -0.000000 -0.000000 -0.000000 -0.000000 -0.000000 -0.000000 -0.000000 -0.000000 -0.000000 -0.000000 -0.000000 -0.000000 -0.000000 -0.000000 -0.000000 -0.000000 -0.000000 -0.000000 -0.000000 -0.000000 -0.000000 -0.000000 -0.000000 -0.000000 -0.000000 -0.000000 -0.000000 -0.000000 -0.000000 -0.000000 -0.000000 -0.000000 -0.000000 -0.000000 -0.000000 -0.000000 -0.000000 -0.000000 -0.000000 -0.000000 -0.000000 -0.000000 -0.000000 -0.000000 -0.000000 -0.000000 -0.000000 -0.000000 -0.000000 -0.000000 -0.000000 -0.000000 -0.000000 -0.000000 -0.000000 -0.000000 -0.000000 -0.000000 -0.000000 -0.000000 -0.000000 -0.000000 -0.000000 -0.000000 -0.000000 -0.000000 -0.000000 -0.000000 -0.000000 -0.000000 -0.000000 -0.000000 -0.000000 -0.000000 -0.000000 -0.000000 -0.000000 -0.000000 -0.000000 -0.000000 -0.000000 -0.000000 -0.000000 -0.000000 -0.000000 -0.000000 -0.000000 -0.000000 -0.000000 -0.000000 -0.000000 -0.000000 -0.000000 -0.000000 -0.000000 -0.000000 -0.000000 -0.000000 -0.000000 -0.000000 -0.000000 -0.000000 -0.000000 -0.000000 -0.000000 -0.000000 -0.000000 -0.000000 -0.000000 -0.000000 -0.000000 -0.000000 -0.000000 -0.000000 -0.000000 -0.000000 -0.000000 -0.000000 -0.000000 -0.000000 -0.000000 -0.000000 -0.000000 -0.000000 -0.000000 -0.000000 -0.000000 -0.000000 -0.000000 -0.000000 -0.000000 -0.000000 -0.000000 -0.000000 0.000000 0.000000 0.000000 -0.000000 -0.000000 -0.000000 0.000000 0.000000 0.000000 -0.000000 -0.000000 -0.000000 0.000000 0.000000 0.000000 -0.000000 -0.000000 -0.000000 0.000000 0.000000 0.000000 -0.000000 -0.000000 -0.000000 0.000000 0.000000 0.000000 -0.000000 -0.000000 -0.000000 0.000000 0.000000 0.000000 -0.000000 -0.000000 -0.000000 0.000000 0.000000 0.000000 -0.000000 -0.000000 -0.000000 0.000000 0.000000 0.000000 -0.000000 -0.000000 -0.000000 0.000000 0.000000 0.000000 -0.000000 -0.000000 -0.000000 0.000000 0.000000 0.000000 -0.000000 -0.000000 -0.000000 0.000000 0.000000 0.000000 -0.000000 -0.000000 -0.000000 0.000000 0.000000 0.000000 -0.000000 -0.000000 -0.000000 0.000000 0.000000 0.000000 -0.000000 -0.000000 -0.000000 0.000000 0.000000 0.000000 -0.000000 -0.000000 -0.000000 0.000000 0.000000 0.000000 -0.000000 -0.000000 -0.000000 0.000000 0.000000 0.000000 -0.000000 -0.000000 -0.000000 0.000000 0.000000 0.000000 -0.000000 -0.000000 -0.000000 0.000000 0.000000 0.000000 -0.000000 -0.000000 -0.000000 0.000000 0.000000 0.000000 -0.000000 -0.000000 -0.000000 0.000000 0.000000 0.000000 -0.000000 -0.000000 -0.000000 0.000000 0.000000 0.000000 -0.000000 -0.000000 -0.000000 0.000000 0.000000 0.000000 -0.000000 -0.000000 -0.000000 0.000000 0.000000 0.000000 -0.000000 -0.000000 -0.000000 0.000000 0.000000 0.000000 -0.000000 -0.000000 -0.000000 0.000000 0.000000 0.000000 -0.000000 -0.000000 -0.000000 0.000000 0.000000 0.000000 -0.000000 -0.000000 -0.000000 0.000000 0.000000 0.000000 -0.000000 -0.000000 -0.000000 0.000000 0.000000 0.000000 -0.000000 -0.000000 -0.000000 0.000000 0.000000 0.000000 -0.000000 -0.000000 -0.000000 0.000000 0.000000 0.000000 -0.000000 -0.000000 -0.000000 0.000000 0.000000 0.000000 -0.000000 -0.000000 -0.000000 0.000000 0.000000 0.000000 -0.000000 -0.000000 -0.000000 0.000000 0.000000 0.000000 -0.000000 -0.000000 -0.000000 0.000000 0.000000 0.000000 -0.000000 -0.000000 -0.000000 0.000000 0.000000 0.000000 -0.000000 -0.000000 -0.000000 0.000000 0.000000 0.000000 -0.000000 -0.000000 -0.000000 0.000000 0.000000 0.000000 -0.000000 -0.000000 -0.000000 0.000000 0.000000 0.000000 -0.000000 -0.000000 -0.000000 0.000000 0.000000 0.000000 -0.000000 -0.000000 -0.000000 0.000000 0.000000 0.000000 -0.000000 -0.000000 -0.000000 0.000000 0.000000 0.000000 -0.000000 -0.000000 -0.000000 0.000000 0.000000 0.000000 -0.000000 -0.000000 -0.000000 0.000000 0.000000 0.000000 -0.000000 -0.000000 -0.000000 0.000000 0.000000 0.000000 -0.000000 -0.000000 -0.000000 0.000000 0.000000 0.000000 -0.000000 -0.000000 -0.000000 0.000000 0.000000 0.000000 -0.000000 -0.000000 -0.000000 0.000000 0.000000 0.000000 -0.000000 -0.000000 -0.000000 0.000000 0.000000 0.000000 -0.000000 -0.000000 -0.000000 0.000000 0.000000 0.000000 -0.000000 -0.000000 -0.000000 0.000000 0.000000 0.000000 -0.000000 -0.000000 -0.000000 0.000000 0.000000 0.000000 -0.000000 -0.000000 -0.000000 0.000000 0.000000 0.000000 -0.000000 -0.000000 -0.000000 0.000000 0.000000 0.000000 -0.000000 -0.000000 -0.000000 0.000000 0.000000 0.000000 -0.000000 -0.000000 -0.000000 0.000000 0.000000 0.000000 -0.000000 -0.000000 -0.000000 0.000000 0.000000 0.000000 -0.000000 -0.000000 -0.000000 0.000000 0.000000 0.000000 -0.000000 -0.000000 -0.000000 0.000000 0.000000 0.000000 -0.000000 -0.000000 -0.000000 0.000000 0.000000 0.000000 -0.000000 -0.000000 -0.000000 0.000000 0.000000 0.000000 -0.000000 -0.000000 -0.000000 0.000000 0.000000 0.000000 -0.000000 -0.000000 -0.000000 0.000000 0.000000 0.000000 -0.000000 -0.000000 -0.000000 0.000000 0.000000 0.000000 -0.000000 -0.000000 -0.000000 0.000000 0.000000 0.000000 -0.000000 -0.000000 -0.000000 0.000000 0.000000 0.000000 -0.000000 -0.000000 -0.000000 0.000000 0.000000 0.000000 -0.000000 -0.000000 -0.000000 0.000000 0.000000 0.000000 -0.000000 -0.000000 -0.000000 0.000000 0.000000 0.000000 -0.000000 -0.000000 -0.000000 0.000000 0.000000 0.000000 -0.000000 -0.000000 -0.000000 0.000000 0.000000 0.000000 -0.000000 -0.000000 -0.000000 0.000000 0.000000 0.000000 -0.000000 -0.000000 -0.000000 0.000000 0.000000 0.000000 -0.000000 -0.000000 -0.000000 0.000000 0.000000 0.000000 -0.000000 -0.000000 -0.000000 0.000000 0.000000 0.000000 -0.000000 -0.000000 -0.000000 0.000000 0.000000 0.000000 -0.000000 -0.000000 -0.000000 0.000000 0.000000 0.000000 -0.000000 -0.000000 -0.000000 0.000000 0.000000 0.000000 -0.000000 -0.000000 -0.000000 0.000000 0.000000 0.000000 -0.000000 -0.000000 -0.000000 0.000000 0.000000 0.000000 -0.000000 -0.000000 -0.000000 0.000000 0.000000 0.000000 -0.000000 -0.000000 -0.000000 0.000000 0.000000 0.000000 -0.000000 -0.000000 -0.000000 0.000000 0.000000 0.000000 -0.000000 -0.000000 -0.000000 0.000000 0.000000 0.000000 -0.000000 -0.000000 -0.000000 0.000000 0.000000 0.000000 -0.000000 -0.000000 -0.000000 0.000000 0.000000 0.000000 -0.000000 -0.000000 -0.000000 0.000000 0.000000 0.000000 -0.000000 -0.000000 -0.000000 0.000000 0.000000 0.000000 -0.000000 -0.000000 -0.000000 0.000000 0.000000 0.000000 -0.000000 -0.000000 -0.000000 0.000000 0.000000 0.000000 -0.000000 -0.000000 -0.000000 0.000000 0.000000 0.000000 -0.000000 -0.000000 -0.000000 0.000000 0.000000 0.000000 -0.000000 -0.000000 -0.000000 0.000000 0.000000 0.000000 -0.000000 -0.000000 -0.000000 0.000000 0.000000 0.000000 -0.000000 -0.000000 -0.000000 0.000000 0.000000 0.000000 -0.000000 -0.000000 -0.000000 0.000000 0.000000 0.000000 -0.000000 -0.000000 -0.000000 0.000000 0.000000 0.000000 -0.000000 -0.000000 -0.000000 0.000000 0.000000 0.000000 -0.000000 -0.000000 -0.000000 0.000000 0.000000 0.000000 -0.000000 -0.000000 -0.000000 0.000000 0.000000 0.000000 -0.000000 -0.000000 -0.000000 0.000000 0.000000 0.000000 -0.000000 -0.000000 -0.000000 0.000000 0.000000 0.000000 -0.000000 -0.000000 -0.000000 0.000000 0.000000 0.000000 -0.000000 -0.000000 -0.000000 0.000000 0.000000 0.000000 -0.000000 -0.000000 -0.000000 0.000000 0.000000 0.000000 -0.000000 -0.000000 -0.000000 0.000000 0.000000 0.000000 -0.000000 -0.000000 -0.000000 0.000000 0.000000 0.000000 -0.000000 -0.000000 -0.000000 0.000000 0.000000 0.000000 -0.000000 -0.000000 -0.000000 0.000000 0.000000 0.000000 -0.000000 -0.000000 -0.000000 0.000000 0.000000 0.000000 -0.000000 -0.000000 -0.000000 0.000000 0.000000 0.000000 -0.000000 -0.000000 -0.000000 0.000000 0.000000 0.000000 -0.000000 -0.000000 -0.000000 0.000000 0.000000 0.000000 -0.000000 -0.000000 -0.000000 0.000000 0.000000 0.000000 -0.000000 -0.000000 -0.000000 0.000000 0.000000 0.000000 -0.000000 -0.000000 -0.000000 0.000000 0.000000 0.000000 -0.000000 -0.000000 -0.000000 0.000000 0.000000 0.000000 -0.000000 -0.000000 -0.000000 -0.000000 -0.000000 -0.000000 -0.000000 -0.000000 -0.000000 -0.000000 -0.000000 -0.000000 -0.000000 -0.000000 -0.000000 -0.000000 -0.000000 -0.000000 -0.000000 -0.000000 -0.000000 -0.000000 -0.000000 -0.000000 -0.000000 -0.000000 -0.000000 -0.000000 -0.000000 -0.000000 0.000000 -0.000000 -0.000000 -0.000000 -0.000000 -0.000000 0.000000 -0.000000 -0.000000 -0.000000 -0.000000 -0.000000 0.000000 -0.000000 -0.000000 -0.000000 -0.000000 -0.000000 0.000000 -0.000000 -0.000000 -0.000000 -0.000000 -0.000000 0.000000 -0.000000 -0.000000 -0.000000 -0.000000 -0.000000 0.000000 -0.000000 -0.000000 -0.000000 -0.000000 -0.000000 0.000000 -0.000000 -0.000000 -0.000000 -0.000000 -0.000000 0.000000 -0.000000 -0.000000 -0.000000 -0.000000 -0.000000 0.000000 -0.000000 -0.000000 -0.000000 -0.000000 -0.000000 0.000000 -0.000000 -0.000000 -0.000000 -0.000000 -0.000000 0.000000 -0.000000 -0.000000 -0.000000 -0.000000 -0.000000 0.000000 -0.000000 -0.000000 -0.000000 -0.000000 -0.000000 0.000000 -0.000000 -0.000000 -0.000000 -0.000000 -0.000000 0.000000 -0.000000 -0.000000 -0.000000 -0.000000 -0.000000 0.000000 -0.000000 -0.000000 -0.000000 -0.000000 -0.000000 0.000000 -0.000000 -0.000000 -0.000000 -0.000000 -0.000000 0.000000 -0.000000 -0.000000 -0.000000 -0.000000 -0.000000 0.000000 -0.000000 -0.000000 -0.000000 -0.000000 -0.000000 0.000000 -0.000000 -0.000000 -0.000000 -0.000000 -0.000000 0.000000 -0.000000 -0.000000 -0.000000 -0.000000 -0.000000 0.000000 -0.000000 -0.000000 -0.000000 -0.000000 -0.000000 0.000000 -0.000000 -0.000000 -0.000000 -0.000000 -0.000000 0.000000 -0.000000 -0.000000 -0.000000 -0.000000 -0.000000 0.000000 -0.000000 -0.000000 -0.000000 -0.000000 -0.000000 0.000000 -0.000000 -0.000000 -0.000000 -0.000000 -0.000000 0.000000 -0.000000 -0.000000 -0.000000 -0.000000 -0.000000 0.000000 -0.000000 -0.000000 -0.000000 -0.000000 -0.000000 0.000000 -0.000000 -0.000000 -0.000000 -0.000000 -0.000000 0.000000 -0.000000 -0.000000 -0.000000 -0.000000 -0.000000 0.000000 -0.000000 -0.000000 -0.000000 -0.000000 -0.000000 0.000000 -0.000000 -0.000000 -0.000000 -0.000000 -0.000000 0.000000 -0.000000 -0.000000 -0.000000 -0.000000 -0.000000 0.000000 -0.000000 -0.000000 -0.000000 -0.000000 -0.000000 0.000000 -0.000000 -0.000000 -0.000000 -0.000000 -0.000000 -0.000000 -0.000000 0.000000 0.000000 0.000000 0.000000 7381.702067 7381.702067 7381.702067 7471.442742 8759.978714 11251.635261 14285.496009 12473.306541 10000.023229 11365.106055 7971.620723 7737.373239 6190.842443 4554.992927 3635.746757 2990.881495 2246.899750 1358.544869 578.842444 -23.531510 -348.653205 -788.866166 -319.666628 -389.085188 -1649.471667 -383.170481 659.480619 383.919225 144.434507 14.657117 -39.618283 -53.812574 -49.366762 -38.215949 -26.525287 -16.939073 -10.092400 -5.659402 -3.004766 -1.516947 -0.730480 -0.336297 -0.148269 -0.062679 -0.025429 -0.009907 -0.003708 -0.001334 -0.000461 -0.000153 -0.000049 -0.000015 -0.000004 -0.000001 -0.000000 -0.000000 -0.000000 -0.000000 -0.000000 -0.000000 -0.000000 -0.000000 -0.000000 -0.000000 -0.000000 -0.000000 -0.000000 -0.000000 -0.000000 -0.000000 -0.000000 -0.000000 -0.000000 -0.000000 -0.000000 -0.000000 -0.000000 -0.000000 -0.000000 -0.000000 -0.000000 -0.000000 -0.000000 -0.000000 -0.000000 -0.000000 -0.000000 -0.000000 -0.000000 -0.000000 -0.000000 -0.000000 -0.000000 -0.000000 -0.000000 -0.000000 -0.000000 -0.000000 -0.000000 -0.000000 -0.000000 -0.000000 -0.000000 -0.000000 -0.000000 -0.000000 -0.000000 0.000000 -0.000000 -0.000000 -0.000000 5361.061045 5361.061045 5361.061045 5480.776732 6668.870337 9038.398468 10976.074148 9182.827648 7944.800151 10256.122397 9456.654374 8662.337833 7520.534350 6323.565395 5619.947047 5008.581401 4382.323577 3759.499834 3201.363159 2721.913670 2275.401900 1746.872743 1395.927503 832.831117 -253.487247 -160.604892 331.282484 249.914222 96.757699 1.680440 -41.458723 -53.020655 -48.541740 -37.874435 -26.562104 -17.149949 -10.331176 -5.856327 -3.142318 -1.602791 -0.779607 -0.362464 -0.161362 -0.068872 -0.028209 -0.011095 -0.004193 -0.001523 -0.000532 -0.000178 -0.000058 -0.000018 -0.000005 -0.000002 -0.000000 -0.000000 -0.000000 -0.000000 -0.000000 -0.000000 -0.000000 -0.000000 -0.000000 -0.000000 0.000000 -0.000000 -0.000000 -0.000000 -0.000000 -0.000000 -0.000000 -0.000000 -0.000000 -0.000000 0.000000 -0.000000 -0.000000 0.000000 -0.000000 -0.000000 -0.000000 -0.000000 -0.000000 -0.000000 -0.000000 -0.000000 -0.000000 0.000000 -0.000000 -0.000000 0.000000 -0.000000 -0.000000 -0.000000 -0.000000 -0.000000 -0.000000 -0.000000 -0.000000 -0.000000 0.000000 -0.000000 -0.000000 0.000000 -0.000000 -0.000000 -0.000000 -0.000000 -0.000000 -0.000000 -0.000000 4157.192834 4157.192834 4157.192834 4241.906415 5180.285442 7174.613757 8612.058952 8981.194762 9158.637229 9437.501988 9046.693707 8322.706138 7540.463976 6822.496963 6207.001532 5656.788369 5129.388010 4605.876902 4079.469469 3542.274370 2984.703532 2410.620525 1834.715829 1251.000417 742.748125 448.846034 296.224701 167.766083 60.242053 -8.703585 -42.476107 -51.922123 -47.624166 -37.542823 -26.652637 -17.424713 -10.626688 -6.096402 -3.309325 -1.707094 -0.839497 -0.394521 -0.177498 -0.076555 -0.031684 -0.012592 -0.004808 -0.001765 -0.000623 -0.000211 -0.000069 -0.000022 -0.000007 -0.000002 -0.000001 -0.000000 -0.000000 -0.000000 -0.000000 -0.000000 -0.000000 -0.000000 -0.000000 -0.000000 -0.000000 -0.000000 -0.000000 -0.000000 -0.000000 -0.000000 -0.000000 -0.000000 -0.000000 -0.000000 -0.000000 -0.000000 -0.000000 -0.000000 -0.000000 -0.000000 -0.000000 -0.000000 -0.000000 -0.000000 -0.000000 -0.000000 -0.000000 -0.000000 -0.000000 -0.000000 -0.000000 -0.000000 -0.000000 -0.000000 -0.000000 -0.000000 -0.000000 -0.000000 -0.000000 -0.000000 -0.000000 -0.000000 -0.000000 -0.000000 -0.000000 -0.000000 -0.000000 0.000000 0.000000 0.000000 0.000000 3986.054179 3986.054179 3986.054179 4063.672158 4902.066408 6819.753301 8194.132946 8913.743627 9262.568195 9316.616885 8931.695007 8249.113542 7505.496232 6822.652780 6225.817224 5686.329170 5168.924131 4651.520019 4122.948894 3576.903438 3011.062355 2431.455767 1851.464340 1292.928303 819.694115 499.374631 300.653120 158.971630 55.310190 -10.122257 -42.543578 -51.701678 -47.459841 -37.487880 -26.672926 -17.476908 -10.681698 -6.140835 -3.340203 -1.726402 -0.850610 -0.400488 -0.180513 -0.077997 -0.032339 -0.012876 -0.004925 -0.001811 -0.000640 -0.000218 -0.000071 -0.000022 -0.000007 -0.000002 -0.000001 -0.000000 -0.000000 -0.000000 -0.000000 -0.000000 -0.000000 -0.000000 -0.000000 -0.000000 -0.000000 -0.000000 -0.000000 -0.000000 -0.000000 -0.000000 -0.000000 -0.000000 -0.000000 -0.000000 -0.000000 -0.000000 -0.000000 -0.000000 -0.000000 -0.000000 -0.000000 -0.000000 -0.000000 -0.000000 -0.000000 -0.000000 -0.000000 -0.000000 -0.000000 -0.000000 -0.000000 -0.000000 -0.000000 -0.000000 -0.000000 -0.000000 -0.000000 -0.000000 -0.000000 -0.000000 -0.000000 -0.000000 -0.000000 -0.000000 -0.000000 0.000000 0.000000 0.000000 0.000000 0.000000 0.000000 3986.054179 3986.054179 3986.054179 4063.672158 4902.066408 6819.753301 8194.132946 8913.743627 9262.568195 9316.616885 8931.695007 8249.113542 7505.496232 6822.652780 6225.817224 5686.329170 5168.924131 4651.520019 4122.948894 3576.903438 3011.062355 2431.455767 1851.464340 1292.928303 819.694115 499.374631 300.653120 158.971630 55.310190 -10.122257 -42.543578 -51.701678 -47.459841 -37.487880 -26.672926 -17.476908 -10.681698 -6.140835 -3.340203 -1.726402 -0.850610 -0.400488 -0.180513 -0.077997 -0.032339 -0.012876 -0.004925 -0.001811 -0.000640 -0.000218 -0.000071 -0.000022 -0.000007 -0.000002 -0.000001 -0.000000 -0.000000 -0.000000 -0.000000 -0.000000 -0.000000 -0.000000 -0.000000 -0.000000 -0.000000 -0.000000 -0.000000 -0.000000 -0.000000 -0.000000 -0.000000 -0.000000 -0.000000 -0.000000 -0.000000 -0.000000 -0.000000 -0.000000 -0.000000 -0.000000 -0.000000 -0.000000 -0.000000 -0.000000 -0.000000 -0.000000 -0.000000 -0.000000 -0.000000 -0.000000 -0.000000 -0.000000 -0.000000 -0.000000 -0.000000 -0.000000 -0.000000 -0.000000 -0.000000 -0.000000 -0.000000 -0.000000 -0.000000 -0.000000 -0.000000 0.000000 0.000000 0.000000 0.000000 0.000000 0.000000 3986.054179 3986.054179 3986.054179 4063.672158 4902.066408 6819.753301 8194.132946 8913.743627 9262.568195 9316.616885 8931.695007 8249.113542 7505.496232 6822.652780 6225.817224 5686.329170 5168.924131 4651.520019 4122.948894 3576.903438 3011.062355 2431.455767 1851.464340 1292.928303 819.694115 499.374631 300.653120 158.971630 55.310190 -10.122257 -42.543578 -51.701678 -47.459841 -37.487880 -26.672926 -17.476908 -10.681698 -6.140835 -3.340203 -1.726402 -0.850610 -0.400488 -0.180513 -0.077997 -0.032339 -0.012876 -0.004925 -0.001811 -0.000640 -0.000218 -0.000071 -0.000022 -0.000007 -0.000002 -0.000001 -0.000000 -0.000000 -0.000000 -0.000000 -0.000000 -0.000000 -0.000000 -0.000000 -0.000000 -0.000000 -0.000000 -0.000000 -0.000000 -0.000000 -0.000000 -0.000000 -0.000000 -0.000000 -0.000000 -0.000000 -0.000000 -0.000000 -0.000000 -0.000000 -0.000000 -0.000000 -0.000000 -0.000000 -0.000000 -0.000000 -0.000000 -0.000000 -0.000000 -0.000000 -0.000000 -0.000000 -0.000000 -0.000000 -0.000000 -0.000000 -0.000000 -0.000000 -0.000000 -0.000000 -0.000000 -0.000000 -0.000000 -0.000000 -0.000000 -0.000000 0.000000 0.000000 0.000000 0.000000 0.000000 0.000000 7229.126007 7229.126007 7229.126007 7435.723972 11184.805192 19974.833427 23911.253325 25294.728186 25562.126747 23769.497645 23948.728654 23236.325442 22436.600908 22127.406979 21521.517710 21771.118195 21857.148701 21686.322171 21152.354581 20514.036324 19837.964688 19269.572973 18901.143417 18678.703659 18508.898322 18194.174379 17611.956307 16780.837113 15849.555812 14972.411684 14245.775892 13679.311970 13250.654961 12922.037413 12647.647299 12368.181354 12024.682366 11580.139967 11001.556083 10265.229854 9387.016205 8380.563142 7322.237683 6175.901848 4979.663730 3499.558663 2900.967656 1883.283161 320.778907 -314.917232 1623.895819 -3203.916390 -78.936465 378.499988 -4559.231988 -4456.802379 9074.031754 9074.031754 9074.031754 9368.730929 15486.671053 27292.444058 29818.692998 32407.446515 38326.837691 39187.729812 35948.765415 34554.082078 33745.585735 31495.104032 31796.728529 30648.602568 28983.109254 29156.424181 29575.528227 30276.433849 30852.339566 31020.237044 30698.611077 29772.338217 28687.876422 27598.919437 26698.284452 26116.505871 25732.883290 25401.495997 25006.185812 24479.019606 23864.023649 23248.737475 22685.480010 22171.659508 21683.710204 21189.491497 20636.988362 19987.369766 19232.179965 18359.329872 17344.450114 16147.265187 14771.318948 13243.662825 11686.823447 10088.090021 8663.784957 7301.925687 5598.037866 4263.973726 1711.301572 4799.740379 385.053669 2100.955820 11772.159496 11772.159496 11772.159496 12229.865538 21096.119468 35363.020388 42408.236027 38356.342226 48015.509729 48836.836376 44497.160056 43375.003974 42893.038047 40815.533815 42524.846227 41802.702607 38982.563980 38695.869966 38433.089646 38765.655911 39063.137437 39189.294801 38962.066632 38128.207865 37167.645275 36029.729109 34927.344139 34168.894586 33719.976867 33447.304265 33145.158560 32652.428807 31909.845734 30965.188501 29952.543628 28993.655978 28130.368045 27327.489753 26538.148325 25748.071357 24961.579398 24164.137932 23308.603327 22285.236166 21044.672425 19483.663360 17778.292880 15766.641719 13830.937041 11701.029956 9297.350631 8440.962999 4434.224041 2351.095467 2341.026466 547.427998 13939.613636 13939.613636 13939.613636 14479.019791 24711.673036 43625.209985 38416.500011 43624.636633 48165.773886 54575.319597 50520.215034 48209.512673 49662.732512 45949.897674 48154.716009 46867.201123 44071.796633 43890.812721 43285.143108 43317.612952 43017.757652 42892.632634 42489.492833 41672.863252 40811.155310 39726.103471 38689.405151 37868.976982 37119.927975 36384.511198 35553.278840 34581.723936 33493.431275 32355.989095 31279.836017 30335.028791 29519.326649 28763.643200 27973.723099 27077.020261 26054.407493 24910.778784 23663.288545 22255.293967 20693.904285 18865.076034 16879.974433 14733.100663 12422.660729 10568.570213 7882.544125 5817.724646 4971.360756 3119.463872 460.832993 403.181658 15512.756748 15512.756748 15512.756748 15980.820028 22332.939703 37031.767442 38959.684265 46208.885731 49192.427123 51683.461154 50091.523903 49485.985499 53160.661435 47768.716365 50139.062257 47780.939857 44755.737804 44041.198330 43611.701354 43755.438012 43557.633457 43488.059691 42823.261644 41724.534216 40513.113766 39138.458950 37937.989874 37052.730870 36315.018135 35678.667501 34981.748060 34144.769381 33161.147628 32064.044331 30941.775937 29867.865804 28878.283185 27950.147892 27016.250146 26001.749922 24871.835432 23622.099817 22283.422615 20830.867543 19270.640452 17573.097069 15655.968138 13863.773527 11707.933460 9822.405083 8373.507273 6513.013563 4085.932569 3491.148093 2565.536745 413.151772 16630.500786 16630.500786 16630.500786 17133.062650 21148.576387 34298.873307 55406.942641 53209.328438 49987.599804 50147.750542 47575.502768 48462.942280 52003.