<VTKFile type="PolyData">
<PolyData>
<Piece NumberOfPoints="8632" NumberOfVerts="8632" NumberOfLines="0" NumberOfStrips="0" NumberOfPolys="0">
<PointData>
<DataArray type="Float64" Name="Pressure" format="ascii">
 13013.873992 13013.873992 13013.873992 13007.211799 12931.407989 12731.704789 12500.216567 12237.711975 11950.346555 11637.087386 11287.942327 10878.800170 10379.681896 9793.131868 9151.423225 8475.688867 7770.887661 7036.505154 6261.169328 5435.222987 4567.393135 3681.227704 2809.066712 2008.346190 1358.748383 900.860533 614.083631 453.176797 374.642667 338.091079 300.887472 220.127933 88.850613 -26.642795 -65.324231 -39.755708 1.969523 3.450389 -75.204338 -193.145309 -265.272005 -287.059056 -314.279193 -407.753019 -572.960986 -733.846561 -860.997455 -1007.288313 -1193.802099 -1352.808332 -1438.529263 -1464.391555 -1453.710732 -1422.215273 -1378.759612 -1327.586796 -1270.897302 -1210.682242 -1148.954784 -1087.119459 -1025.994956 -966.081983 -907.709697 -851.106164 -796.432428 -743.801372 -693.289826 -644.947089 -598.801146 -554.863163 -513.130679 -473.589815 -436.216804 -400.979074 -367.836073 -336.739969 -307.636315 -280.464729 -255.159600 -231.650837 -209.864634 -189.724252 -171.150784 -154.063901 -138.382550 -124.025606 -110.912467 -98.963582 -88.100915 -78.248342 -69.331994 -61.280522 -54.025325 -47.500706 -41.643994 -36.395612 -31.699110 -27.501176 -23.751629 -20.403451 -17.412944 -14.740262 -12.350868 -10.219023 -8.334128 -6.700895 -5.297594 -4.398073 -4.228553 -4.228553 -4.228553 13013.873992 13013.873992 13013.873992 13007.211799 12931.407989 12731.704789 12500.216567 12237.711975 11950.346555 11637.087386 11287.942327 10878.800170 10379.681896 9793.131868 9151.423225 8475.688867 7770.887661 7036.505154 6261.169328 5435.222987 4567.393135 3681.227704 2809.066712 2008.346190 1358.748383 900.860533 614.083631 453.176797 374.642667 338.091079 300.887472 220.127933 88.850613 -26.642795 -65.324231 -39.755708 1.969523 3.450389 -75.204338 -193.145309 -265.272005 -287.059056 -314.279193 -407.753019 -572.960986 -733.846561 -860.997455 -1007.288313 -1193.802099 -1352.808332 -1438.529263 -1464.391555 -1453.710732 -1422.215273 -1378.759612 -1327.586796 -1270.897302 -1210.682242 -1148.954784 -1087.119459 -1025.994956 -966.081983 -907.709697 -851.106164 -796.432428 -743.801372 -693.289826 -644.947089 -598.801146 -554.863163 -513.130679 -473.589815 -436.216804 -400.979074 -367.836073 -336.739969 -307.636315 -280.464729 -255.159600 -231.650837 -209.864634 -189.724252 -171.150784 -154.063901 -138.382550 -124.025606 -110.912467 -98.963582 -88.100915 -78.248342 -69.331994 -61.280522 -54.025325 -47.500706 -41.643994 -36.395612 -31.699110 -27.501176 -23.751629 -20.403451 -17.412944 -14.740262 -12.350868 -10.219023 -8.334128 -6.700895 -5.297594 -4.398073 -4.228553 -4.228553 -4.228553 13013.873992 13013.873992 13013.873992 13007.211799 12931.407989 12731.704789 12500.216567 12237.711975 11950.346555 11637.087386 11287.942327 10878.800170 10379.681896 9793.131868 9151.423225 8475.688867 7770.887661 7036.505154 6261.169328 5435.222987 4567.393135 3681.227704 2809.066712 2008.346190 1358.748383 900.860533 614.083631 453.176797 374.642667 338.091079 300.887472 220.127933 88.850613 -26.642795 -65.324231 -39.755708 1.969523 3.450389 -75.204338 -193.145309 -265.272005 -287.059056 -314.279193 -407.753019 -572.960986 -733.846561 -860.997455 -1007.288313 -1193.802099 -1352.808332 -1438.529263 -1464.391555 -1453.710732 -1422.215273 -1378.759612 -1327.586796 -1270.897302 -1210.682242 -1148.954784 -1087.119459 -1025.994956 -966.081983 -907.709697 -851.106164 -796.432428 -743.801372 -693.289826 -644.947089 -598.801146 -554.863163 -513.130679 -473.589815 -436.216804 -400.979074 -367.836073 -336.739969 -307.636315 -280.464729 -255.159600 -231.650837 -209.864634 -189.724252 -171.150784 -154.063901 -138.382550 -124.025606 -110.912467 -98.963582 -88.100915 -78.248342 -69.331994 -61.280522 -54.025325 -47.500706 -41.643994 -36.395612 -31.699110 -27.501176 -23.751629 -20.403451 -17.412944 -14.740262 -12.350868 -10.219023 -8.334128 -6.700895 -5.297594 -4.398073 -4.228553 -4.228553 -4.228553 13017.663179 13017.663179 13017.663179 13011.095009 12934.879007 12731.733137 12496.161956 12238.879730 11961.583944 11653.870178 11311.962466 10917.357585 10417.165834 9811.777596 9152.913506 8464.521575 7748.468988 7009.838475 6230.706745 5395.477864 4515.308380 3618.006596 2732.556240 1913.539484 1265.686941 829.782193 567.673037 426.546942 363.922402 342.356764 319.572405 240.766991 84.236994 -53.456741 -86.407733 -43.553051 17.388405 32.215911 -57.625849 -216.015707 -283.360503 -286.405855 -294.380660 -375.770817 -573.479800 -752.146443 -862.745630 -994.592137 -1201.856316 -1388.508188 -1463.719803 -1478.210131 -1461.224451 -1426.407886 -1381.367736 -1329.456654 -1272.128294 -1211.317751 -1149.222287 -1087.218008 -1026.020806 -966.076690 -907.690626 -851.080661 -796.403727 -743.771000 -693.258572 -644.915410 -598.769337 -554.831436 -513.099200 -473.558723 -436.186221 -400.949109 -367.806825 -336.711529 -307.608764 -280.438138 -255.134029 -231.626336 -209.841241 -189.701996 -171.129683 -154.043962 -138.363771 -124.007979 -110.895975 -98.948202 -88.086619 -78.235097 -69.319762 -61.269264 -54.014998 -47.491268 -41.635398 -36.387810 -31.692049 -27.494791 -23.745823 -20.398042 -17.407537 -14.733930 -12.341447 -10.202064 -8.305361 -6.664288 -5.268005 -4.375022 -4.206992 -4.206992 -4.206992 13063.645589 13063.645589 13063.645589 13059.292627 12981.196970 12698.951983 12377.916395 12234.783688 12153.249538 11890.818854 11597.499175 11431.836205 10922.144020 10044.328728 9177.650924 8350.788277 7492.048002 6712.087647 5903.999192 4952.421795 3914.758382 2903.452347 1860.485138 781.881240 158.805213 27.066756 62.958368 138.960543 249.432024 398.752613 564.604067 616.674805 6.976533 -495.865118 -349.215290 -90.247789 197.590442 500.357658 191.066328 -585.271763 -547.303950 -279.052555 4.962171 131.271541 -618.844280 -1056.436613 -822.765733 -656.460707 -1276.215182 -1832.574218 -1745.319905 -1630.878672 -1542.858532 -1471.849445 -1410.109223 -1351.839445 -1287.168662 -1217.897299 -1151.891270 -1088.178291 -1026.266381 -966.018139 -907.497552 -850.824628 -796.116302 -743.467114 -692.945985 -644.598628 -598.451287 -554.514223 -512.784476 -473.247872 -435.880458 -400.649530 -367.514425 -336.427209 -307.333334 -280.172305 -254.878398 -231.381403 -209.607394 -189.479514 -170.918743 -153.844643 -138.176061 -123.831785 -110.731130 -98.794476 -87.943726 -78.102707 -69.197506 -61.156744 -53.911792 -47.396936 -41.549486 -36.309839 -31.621494 -27.431005 -23.687847 -20.344104 -17.353774 -14.671175 -12.247439 -10.025679 -7.949036 -6.183508 -4.902775 -4.111726 -3.970833 -3.970833 -3.970833 13143.526921 13143.526921 13143.526921 13142.087962 13089.832953 12553.668892 11579.815709 12149.789746 13171.014601 12530.463373 11576.664193 12564.583023 11999.807584 10206.643940 9192.660285 8308.544828 6989.409525 6332.467434 5547.344809 4387.737667 3063.785895 1889.485438 911.522581 -1238.086976 -1516.850244 -941.823092 -527.144130 -194.034228 119.659927 478.830106 994.646593 1438.270009 -121.601336 -1375.547121 -761.484815 -151.236632 447.128318 1200.793578 531.323837 -1126.891880 -937.841354 -269.841688 428.398304 690.800020 -949.457102 -1611.823417 -740.883942 -296.880257 -1685.970433 -2571.829596 -2113.202925 -1813.266970 -1639.214731 -1525.323765 -1444.891320 -1384.421129 -1315.536962 -1229.394348 -1156.074064 -1089.692686 -1026.708126 -966.015128 -907.302754 -850.542944 -795.792937 -743.122729 -692.590854 -644.238432 -598.089560 -554.153434 -512.426523 -472.894335 -435.532719 -400.308833 -367.181902 -336.103887 -307.020132 -279.870031 -254.587738 -231.102922 -209.341532 -189.226588 -170.678953 -153.618077 -137.962705 -123.631531 -110.543787 -98.619781 -87.781353 -77.952278 -69.058601 -61.028909 -53.794546 -47.289777 -41.451890 -36.221250 -31.541286 -27.358369 -23.621500 -20.281541 -17.289326 -14.590946 -12.115539 -9.742610 -7.183390 -5.298636 -4.331111 -3.750062 -3.643648 -3.643648 -3.643648 -4.934721 -4.099073 -3.658017 -3.598359 -3.598359 -3.598359 -4.100563 -3.627733 -3.330941 -3.290323 -3.290323 -3.290323 -3.130744 -2.970281 -2.838303 -2.819669 -2.819669 -2.819669 -2.509333 -2.449911 -2.398662 -2.391091 -2.391091 -2.391091 -2.053845 -2.033678 -2.016885 -2.014500 -2.014500 -2.014500 -1.697192 -1.692519 -1.689728 -1.689484 -1.689484 -1.689484 -1.407559 -1.408821 -1.411339 -1.411899 -1.411899 -1.411899 -1.168045 -1.171331 -1.175554 -1.176357 -1.176357 -1.176357 -0.968369 -0.972101 -0.976575 -0.977397 -0.977397 -0.977397 -0.801439 -0.805005 -0.809181 -0.809939 -0.809939 -0.809939 -0.661872 -0.665065 -0.668766 -0.669434 -0.669434 -0.669434 -0.545334 -0.548107 -0.551307 -0.551884 -0.551884 -0.551884 -0.448217 -0.450589 -0.453320 -0.453811 -0.453811 -0.453811 -0.367474 -0.369485 -0.371797 -0.372213 -0.372213 -0.372213 -0.300512 -0.302206 -0.304154 -0.304504 -0.304504 -0.304504 -0.245124 -0.246545 -0.248179 -0.248473 -0.248473 -0.248473 -0.199430 -0.200619 -0.201985 -0.202230 -0.202230 -0.202230 -0.161835 -0.162826 -0.163964 -0.164169 -0.164169 -0.164169 -0.130987 -0.131810 -0.132756 -0.132926 -0.132926 -0.132926 -0.105744 -0.106425 -0.107208 -0.107349 -0.107349 -0.107349 -0.085142 -0.085705 -0.086352 -0.086468 -0.086468 -0.086468 -0.068375 -0.068839 -0.069372 -0.069468 -0.069468 -0.069468 -0.054767 -0.055147 -0.055585 -0.055663 -0.055663 -0.055663 -0.043751 -0.044063 -0.044421 -0.044485 -0.044485 -0.044485 -0.034859 -0.035113 -0.035406 -0.035459 -0.035459 -0.035459 -0.027701 -0.027908 -0.028146 -0.028189 -0.028189 -0.028189 -0.021955 -0.022123 -0.022316 -0.022351 -0.022351 -0.022351 -0.017354 -0.017490 -0.017647 -0.017675 -0.017675 -0.017675 -0.013682 -0.013791 -0.013918 -0.013940 -0.013940 -0.013940 -0.010757 -0.010846 -0.010947 -0.010966 -0.010966 -0.010966 -0.008436 -0.008507 -0.008588 -0.008603 -0.008603 -0.008603 -0.006597 -0.006654 -0.006719 -0.006731 -0.006731 -0.006731 -0.005146 -0.005191 -0.005243 -0.005253 -0.005253 -0.005253 -0.004003 -0.004039 -0.004081 -0.004088 -0.004088 -0.004088 -0.003106 -0.003134 -0.003167 -0.003173 -0.003173 -0.003173 -0.002403 -0.002426 -0.002452 -0.002456 -0.002456 -0.002456 -0.001854 -0.001872 -0.001893 -0.001896 -0.001896 -0.001896 -0.001427 -0.001441 -0.001457 -0.001460 -0.001460 -0.001460 -0.001095 -0.001106 -0.001119 -0.001121 -0.001121 -0.001121 -0.000838 -0.000847 -0.000857 -0.000859 -0.000859 -0.000859 -0.000640 -0.000647 -0.000654 -0.000656 -0.000656 -0.000656 -0.000487 -0.000493 -0.000499 -0.000500 -0.000500 -0.000500 -0.000370 -0.000374 -0.000379 -0.000380 -0.000380 -0.000380 -0.000280 -0.000283 -0.000287 -0.000288 -0.000288 -0.000288 -0.000212 -0.000214 -0.000217 -0.000217 -0.000217 -0.000217 -0.000159 -0.000161 -0.000163 -0.000164 -0.000164 -0.000164 -0.000120 -0.000121 -0.000123 -0.000123 -0.000123 -0.000123 -0.000090 -0.000091 -0.000092 -0.000092 -0.000092 -0.000092 -0.000067 -0.000068 -0.000069 -0.000069 -0.000069 -0.000069 -0.000050 -0.000051 -0.000051 -0.000051 -0.000051 -0.000051 -0.000037 -0.000038 -0.000038 -0.000038 -0.000038 -0.000038 -0.000027 -0.000028 -0.000028 -0.000028 -0.000028 -0.000028 -0.000020 -0.000021 -0.000021 -0.000021 -0.000021 -0.000021 -0.000015 -0.000015 -0.000015 -0.000015 -0.000015 -0.000015 -0.000011 -0.000011 -0.000011 -0.000011 -0.000011 -0.000011 -0.000008 -0.000008 -0.000008 -0.000008 -0.000008 -0.000008 -0.000006 -0.000006 -0.000006 -0.000006 -0.000006 -0.000006 -0.000004 -0.000004 -0.000004 -0.000004 -0.000004 -0.000004 -0.000003 -0.000003 -0.000003 -0.000003 -0.000003 -0.000003 -0.000002 -0.000002 -0.000002 -0.000002 -0.000002 -0.000002 -0.000002 -0.000002 -0.000002 -0.000002 -0.000002 -0.000002 -0.000001 -0.000001 -0.000001 -0.000001 -0.000001 -0.000001 -0.000001 -0.000001 -0.000001 -0.000001 -0.000001 -0.000001 -0.000001 -0.000001 -0.000001 -0.000001 -0.000001 -0.000001 -0.000000 -0.000000 -0.000000 -0.000000 -0.000000 -0.000000 -0.000000 -0.000000 -0.000000 -0.000000 -0.000000 -0.000000 -0.000000 -0.000000 -0.000000 -0.000000 -0.000000 -0.000000 -0.000000 -0.000000 -0.000000 -0.000000 -0.000000 -0.000000 -0.000000 -0.000000 -0.000000 -0.000000 -0.000000 -0.000000 -0.000000 -0.000000 -0.000000 -0.000000 -0.000000 -0.000000 -0.000000 -0.000000 -0.000000 -0.000000 -0.000000 -0.000000 -0.000000 -0.000000 -0.000000 -0.000000 -0.000000 -0.000000 -0.000000 -0.000000 -0.000000 -0.000000 -0.000000 -0.000000 -0.000000 -0.000000 -0.000000 -0.000000 -0.000000 -0.000000 -0.000000 -0.000000 -0.000000 -0.000000 -0.000000 -0.000000 -0.000000 -0.000000 -0.000000 -0.000000 -0.000000 -0.000000 -0.000000 -0.000000 -0.000000 -0.000000 -0.000000 -0.000000 -0.000000 -0.000000 -0.000000 -0.000000 -0.000000 -0.000000 -0.000000 -0.000000 -0.000000 -0.000000 -0.000000 -0.000000 -0.000000 -0.000000 -0.000000 -0.000000 -0.000000 -0.000000 -0.000000 -0.000000 -0.000000 -0.000000 -0.000000 -0.000000 -0.000000 -0.000000 -0.000000 -0.000000 -0.000000 -0.000000 -0.000000 -0.000000 -0.000000 0.000000 0.000000 0.000000 -0.000000 -0.000000 -0.000000 0.000000 0.000000 0.000000 -0.000000 -0.000000 -0.000000 0.000000 0.000000 0.000000 -0.000000 -0.000000 -0.000000 0.000000 0.000000 0.000000 -0.000000 -0.000000 -0.000000 0.000000 0.000000 0.000000 -0.000000 -0.000000 -0.000000 0.000000 0.000000 0.000000 -0.000000 -0.000000 -0.000000 0.000000 0.000000 0.000000 -0.000000 -0.000000 -0.000000 0.000000 0.000000 0.000000 -0.000000 -0.000000 -0.000000 0.000000 0.000000 0.000000 -0.000000 -0.000000 -0.000000 0.000000 0.000000 0.000000 -0.000000 -0.000000 -0.000000 0.000000 0.000000 0.000000 -0.000000 -0.000000 -0.000000 0.000000 0.000000 0.000000 -0.000000 -0.000000 -0.000000 0.000000 0.000000 0.000000 -0.000000 -0.000000 -0.000000 0.000000 0.000000 0.000000 -0.000000 -0.000000 -0.000000 0.000000 0.000000 0.000000 -0.000000 -0.000000 -0.000000 0.000000 0.000000 0.000000 -0.000000 -0.000000 -0.000000 0.000000 0.000000 0.000000 -0.000000 -0.000000 -0.000000 0.000000 0.000000 0.000000 -0.000000 -0.000000 -0.000000 0.000000 0.000000 0.000000 -0.000000 -0.000000 -0.000000 0.000000 0.000000 0.000000 -0.000000 -0.000000 -0.000000 0.000000 0.000000 0.000000 -0.000000 -0.000000 -0.000000 0.000000 0.000000 0.000000 -0.000000 -0.000000 -0.000000 0.000000 0.000000 0.000000 -0.000000 -0.000000 -0.000000 0.000000 0.000000 0.000000 -0.000000 -0.000000 -0.000000 0.000000 0.000000 0.000000 -0.000000 -0.000000 -0.000000 0.000000 0.000000 0.000000 -0.000000 -0.000000 -0.000000 0.000000 0.000000 0.000000 -0.000000 -0.000000 -0.000000 0.000000 0.000000 0.000000 -0.000000 -0.000000 -0.000000 0.000000 0.000000 0.000000 -0.000000 -0.000000 -0.000000 0.000000 0.000000 0.000000 -0.000000 -0.000000 -0.000000 0.000000 0.000000 0.000000 -0.000000 -0.000000 -0.000000 0.000000 0.000000 0.000000 -0.000000 -0.000000 -0.000000 0.000000 0.000000 0.000000 -0.000000 -0.000000 -0.000000 0.000000 0.000000 0.000000 -0.000000 -0.000000 -0.000000 0.000000 0.000000 0.000000 -0.000000 -0.000000 -0.000000 0.000000 0.000000 0.000000 -0.000000 -0.000000 -0.000000 0.000000 0.000000 0.000000 -0.000000 -0.000000 -0.000000 0.000000 0.000000 0.000000 -0.000000 -0.000000 -0.000000 0.000000 0.000000 0.000000 -0.000000 -0.000000 -0.000000 0.000000 0.000000 0.000000 0.000000 -0.000000 -0.000000 0.000000 0.000000 0.000000 0.000000 -0.000000 0.000000 0.000000 0.000000 0.000000 0.000000 0.000000 0.000000 0.000000 0.000000 0.000000 0.000000 0.000000 0.000000 0.000000 0.000000 0.000000 0.000000 0.000000 0.000000 0.000000 0.000000 0.000000 0.000000 0.000000 0.000000 0.000000 0.000000 0.000000 0.000000 0.000000 0.000000 0.000000 0.000000 0.000000 0.000000 0.000000 0.000000 0.000000 0.000000 0.000000 0.000000 0.000000 0.000000 0.000000 0.000000 0.000000 0.000000 0.000000 0.000000 0.000000 0.000000 0.000000 0.000000 0.000000 0.000000 0.000000 0.000000 0.000000 0.000000 0.000000 0.000001 0.000001 0.000001 0.000001 0.000001 0.000001 0.000001 0.000001 0.000001 0.000001 0.000002 0.000002 0.000002 0.000002 0.000002 0.000002 0.000003 0.000003 0.000003 0.000003 0.000003 0.000003 0.000005 0.000006 0.000006 0.000006 0.000006 0.000006 0.000010 0.000010 0.000011 0.000011 0.000011 0.000011 0.000017 0.000018 0.000019 0.000019 0.000019 0.000019 0.000030 0.000031 0.000032 0.000033 0.000033 0.000033 0.000051 0.000053 0.000056 0.000056 0.000056 0.000056 0.000087 0.000091 0.000095 0.000095 0.000095 0.000095 0.000147 0.000152 0.000159 0.000160 0.000160 0.000160 0.000244 0.000253 0.000263 0.000265 0.000265 0.000265 0.000402 0.000415 0.000431 0.000434 0.000434 0.000434 0.000652 0.000673 0.000697 0.000701 0.000701 0.000701 0.001046 0.001077 0.001114 0.001120 0.001120 0.001120 0.001656 0.001703 0.001757 0.001767 0.001767 0.001767 0.002590 0.002659 0.002739 0.002753 0.002753 0.002753 0.003999 0.004099 0.004214 0.004235 0.004235 0.004235 0.006096 0.006238 0.006403 0.006433 0.006433 0.006433 0.009173 0.009373 0.009605 0.009647 0.009647 0.009647 0.013626 0.013902 0.014221 0.014279 0.014279 0.014279 0.019974 0.020349 0.020783 0.020861 0.020861 0.020861 0.028892 0.029393 0.029970 0.030074 0.030074 0.030074 0.041233 0.041888 0.042643 0.042779 0.042779 0.042779 0.058046 0.058886 0.059853 0.060027 0.060027 0.060027 0.080586 0.081642 0.082855 0.083073 0.083073 0.083073 0.110309 0.111606 0.113093 0.113359 0.113359 0.113359 0.148836 0.150388 0.152165 0.152484 0.152484 0.152484 0.197883 0.199690 0.201755 0.202125 0.202125 0.202125 0.259152 0.261188 0.263511 0.263927 0.263927 0.263927 0.334163 0.336370 0.338882 0.339331 0.339331 0.339331 0.424030 0.426307 0.428893 0.429354 0.429354 0.429354 0.529178 0.531375 0.533860 0.534302 0.534302 0.534302 0.649003 0.650913 0.653060 0.653441 0.653441 0.653441 0.781497 0.782854 0.784359 0.784624 0.784624 0.784624 0.922855 0.923337 0.923835 0.923918 0.923918 0.923918 1.067104 1.066345 1.065418 1.065246 1.065246 1.065246 1.205807 1.203414 1.200616 1.200108 1.200108 1.200108 1.327886 1.323466 1.318350 1.317428 1.317428 1.317428 1.419632 1.412825 1.404989 1.403580 1.403580 1.403580 1.464949 1.455476 1.444606 1.442654 1.442654 1.442654 1.445895 1.433601 1.419526 1.417003 1.417003 1.417003 1.343525 1.328427 1.311172 1.308082 1.308082 1.308082 1.139050 1.121378 1.101211 1.097602 1.097602 1.097602 0.815268 0.795495 0.772959 0.768930 0.768930 0.768930 0.358199 0.337054 0.312984 0.308684 0.308684 0.308684 -0.241200 -0.262740 -0.287229 -0.291601 -0.291601 -0.291601 -0.985378 -1.006119 -1.029671 -1.033873 -1.033873 -1.033873 -1.868758 -1.887353 -1.908437 -1.912195 -1.912195 -1.912195 -2.876714 -2.891743 -2.908747 -2.911774 -2.911774 -2.911774 -3.985096 -3.995170 -4.006521 -4.008537 -4.008537 -4.008537 -5.160457 -5.164331 -5.168620 -5.169373 -5.169373 -5.169373 -6.361022 -6.357708 -6.353820 -6.353113 -6.353113 -6.353113 -7.538424 -7.527298 -7.514527 -7.512235 -7.512235 -7.512235 -8.640125 -8.621007 -8.599155 -8.595242 -8.595242 -8.595242 -9.612376 -9.585586 -9.555020 -9.549551 -9.549551 -9.549551 -10.403504 -10.369885 -10.331557 -10.324703 -10.324703 -10.324703 -10.967266 -10.928175 -10.883616 -10.875648 -10.875648 -10.875648 -11.265974 -11.223271 -11.174559 -11.165845 -11.165845 -11.165845 -11.273102 -11.229167 -11.178929 -11.169930 -11.169930 -11.169930 -10.975045 -10.932933 -10.884460 -10.875745 -10.875745 -10.875745 -10.371653 -10.335607 -10.293302 -10.285616 -10.285616 -10.285616 -9.474970 -9.451810 -9.422405 -9.416848 -9.416848 -9.416848 -8.304964 -8.307645 -8.303170 -8.301631 -8.301631 -8.301631 -6.879271 -6.936497 -6.980780 -6.986729 -6.986729 -6.986729 -5.187667 -5.374623 -5.514867 -5.533831 -5.533831 -5.533831 -3.112503 -3.688296 -3.976662 -4.014514 -4.014514 -4.014514 22847.710465 22847.710465 22847.710465 22419.036395 17324.038628 10643.512675 11206.041867 9767.428905 9052.682265 12753.002738 9723.656036 10379.406144 13766.145199 13927.730072 16997.271091 18723.869862 22269.842392 18817.702242 17313.105410 16997.750953 16792.642928 15949.289312 16567.326845 10245.243146 13125.478069 14129.944310 12406.563747 9996.037635 6458.490094 3937.417740 6463.240494 -219.232581 1189.806871 4144.817810 3756.981604 1402.875179 -1466.140694 584.556142 2321.496570 2904.147972 3448.267418 2659.264654 -1472.440711 -2000.058826 -288.547728 501.569414 1108.806331 2090.047405 3765.753288 395.028056 -3423.160842 -2103.104198 -1113.025237 -705.375664 -507.960771 -402.455291 -336.503907 -287.235812 -244.897513 -205.684708 -168.455236 -133.203381 -100.346934 -70.393249 -43.784092 -20.826909 -1.670166 13.696895 25.429621 33.803919 39.186696 42.004056 42.710105 41.758732 39.580121 36.563018 33.043080 29.297004 25.541699 21.937452 18.593911 15.577781 12.921208 10.630058 8.691511 7.080588 5.765450 4.711424 3.883846 3.249865 2.779391 2.445381 2.223646 2.092353 2.031355 2.021476 2.043818 2.079147 2.107294 2.106396 2.051449 1.910878 1.637859 1.148757 0.221007 -1.027129 -1.884891 -2.350453 -2.434329 -2.434329 -2.434329 22660.780386 22660.780386 22660.780386 22496.388639 20313.469424 17378.675701 15888.704909 13330.863845 13063.449406 14740.903107 13889.987820 14575.737413 16253.853660 17073.264614 19208.198273 18790.311910 18694.243329 16810.790907 15684.977718 15599.141177 15331.040320 14960.877297 14816.323405 13755.670556 13614.378350 13413.318600 12339.480674 10886.987909 9155.558316 7944.441945 7234.661616 5527.273588 5544.361188 5985.321198 5457.931463 4033.350549 2837.574861 2691.064538 2909.874961 2911.625324 2712.718965 1971.002950 295.114924 -51.443296 371.557137 692.088671 961.659542 1258.129569 1470.178992 319.074749 -1002.987547 -914.924522 -692.907847 -526.070696 -429.091752 -367.198263 -320.628984 -280.066735 -241.695808 -204.338336 -168.014071 -133.230362 -100.631452 -70.825001 -44.297854 -21.378665 -2.227092 13.160358 24.933150 33.361747 38.807855 41.692734 42.466209 41.578655 39.457624 36.490148 33.011033 29.296877 25.565082 21.976839 18.642954 15.631385 12.975512 10.682329 8.739983 7.124276 5.803962 4.744784 3.912341 3.273917 2.799462 2.461902 2.236976 2.102761 2.039028 2.026552 2.046476 2.079775 2.106853 2.107208 2.058957 1.937761 1.714377 1.350982 0.823496 0.189330 -0.394743 -0.769045 -0.838326 -0.838326 -0.838326 22566.077809 22566.077809 22566.077809 22543.686299 22313.706039 21892.600214 21491.491079 21083.607163 21094.266501 21145.093136 21075.013391 20942.480623 20797.732417 20399.610279 20012.532862 19494.486801 18828.611931 18020.542677 17307.088781 16783.459340 16340.207514 15897.148693 15447.950667 14920.254106 14366.916548 13769.612640 13031.555022 12121.871108 11150.649668 10233.944598 9365.729432 8471.369298 7710.393894 7028.172528 6213.090612 5260.117402 4400.124669 3796.602491 3355.613331 2942.814455 2487.883357 1944.334275 1380.797243 1020.090910 886.929925 857.948293 853.083515 820.712478 669.319133 319.940215 -65.610134 -278.055660 -352.205702 -367.076746 -356.646023 -334.430727 -305.795772 -273.346988 -238.695786 -203.094585 -167.641275 -133.318869 -100.981021 -71.327891 -44.887874 -22.009360 -2.862750 12.548098 24.366383 32.856580 38.374580 41.336182 42.186368 41.371514 39.316171 36.405401 32.973021 29.295493 25.590753 22.021009 18.698366 15.692203 13.037298 10.741929 8.795346 7.174248 5.848068 4.783029 3.945033 3.301527 2.822507 2.480870 2.252273 2.114691 2.047797 2.032305 2.049380 2.080186 2.105661 2.106574 2.063935 1.959887 1.779398 1.513931 1.169089 0.773668 0.367612 0.072433 0.010266 0.010266 0.010266 22551.034282 22551.034282 22551.034282 22546.005372 22496.666633 22392.467867 22259.889970 22118.497408 22067.614731 22028.504668 21878.168782 21636.937916 21266.265239 20751.732285 20212.039160 19634.379584 18984.121738 18271.794116 17606.836798 17050.893439 16561.700623 16087.892174 15607.289729 15088.255567 14524.513818 13901.795372 13181.324405 12349.668299 11463.216121 10582.316673 9708.321571 8828.618770 7992.577365 7179.181737 6309.805925 5399.349954 4576.129462 3927.765561 3414.817073 2950.397258 2473.953571 1966.151043 1483.263004 1138.827630 959.461293 882.789850 838.877281 766.458317 601.905594 321.259117 16.042898 -196.827314 -303.974423 -342.937856 -345.410179 -329.307940 -303.468137 -272.290064 -238.224043 -202.901156 -167.587557 -133.340433 -101.046032 -71.418873 -44.993806 -22.122305 -2.976492 12.438554 24.264954 32.766134 38.296957 41.272253 42.136140 41.334282 39.290689 36.390073 32.966070 29.295116 25.595240 22.028830 18.708223 15.703047 13.048333 10.752587 8.805257 7.183201 5.855976 4.789890 3.950901 3.306484 2.826646 2.484276 2.255019 2.116831 2.049367 2.033331 2.049887 2.080229 2.105379 2.106305 2.064468 1.963001 1.788908 1.536939 1.214993 0.847306 0.462778 0.180939 0.123534 0.123534 0.123534 22551.034282 22551.034282 22551.034282 22546.005372 22496.666633 22392.467867 22259.889970 22118.497408 22067.614731 22028.504668 21878.168782 21636.937916 21266.265239 20751.732285 20212.039160 19634.379584 18984.121738 18271.794116 17606.836798 17050.893439 16561.700623 16087.892174 15607.289729 15088.255567 14524.513818 13901.795372 13181.324405 12349.668299 11463.216121 10582.316673 9708.321571 8828.618770 7992.577365 7179.181737 6309.805925 5399.349954 4576.129462 3927.765561 3414.817073 2950.397258 2473.953571 1966.151043 1483.263004 1138.827630 959.461293 882.789850 838.877281 766.458317 601.905594 321.259117 16.042898 -196.827314 -303.974423 -342.937856 -345.410179 -329.307940 -303.468137 -272.290064 -238.224043 -202.901156 -167.587557 -133.340433 -101.046032 -71.418873 -44.993806 -22.122305 -2.976492 12.438554 24.264954 32.766134 38.296957 41.272253 42.136140 41.334282 39.290689 36.390073 32.966070 29.295116 25.595240 22.028830 18.708223 15.703047 13.048333 10.752587 8.805257 7.183201 5.855976 4.789890 3.950901 3.306484 2.826646 2.484276 2.255019 2.116831 2.049367 2.033331 2.049887 2.080229 2.105379 2.106305 2.064468 1.963001 1.788908 1.536939 1.214993 0.847306 0.462778 0.180939 0.123534 0.123534 0.123534 22551.034282 22551.034282 22551.034282 22546.005372 22496.666633 22392.467867 22259.889970 22118.497408 22067.614731 22028.504668 21878.168782 21636.937915 21266.265239 20751.732285 20212.039160 19634.379584 18984.121738 18271.794116 17606.836798 17050.893439 16561.700623 16087.892174 15607.289729 15088.255567 14524.513818 13901.795372 13181.324405 12349.668299 11463.216121 10582.316673 9708.321571 8828.618770 7992.577365 7179.181737 6309.805925 5399.349954 4576.129462 3927.765561 3414.817073 2950.397258 2473.953571 1966.151043 1483.263004 1138.827630 959.461293 882.789850 838.877281 766.458317 601.905594 321.259117 16.042898 -196.827314 -303.974423 -342.937856 -345.410179 -329.307940 -303.468137 -272.290064 -238.224043 -202.901156 -167.587557 -133.340433 -101.046032 -71.418873 -44.993806 -22.122305 -2.976492 12.438554 24.264954 32.766134 38.296957 41.272253 42.136140 41.334282 39.290689 36.390073 32.966070 29.295116 25.595240 22.028830 18.708223 15.703047 13.048333 10.752587 8.805257 7.183201 5.855976 4.789890 3.950901 3.306484 2.826646 2.484276 2.255019 2.116831 2.049367 2.033331 2.049887 2.080229 2.105379 2.106305 2.064468 1.963001 1.788908 1.536939 1.214993 0.847306 0.462778 0.180939 0.123534 0.123534 0.123534 13158.319558 13158.319558 13158.319558 13157.045852 13140.117137 12571.557084 11465.723636 12103.697835 13359.633272 12631.202520 11439.284436 12777.226871 12116.250339 10149.671318 9200.734960 8439.280512 6993.330533 6338.848779 5561.927567 4361.926817 2909.855693 1726.608705 899.770691 -1663.537855 -1848.593724 -1016.765496 -571.064479 -218.737035 109.953485 485.226457 1042.866674 1542.851653 -135.818918 -1484.294345 -804.933370 -156.248338 466.317313 1249.896551 558.476459 -1156.781274 -965.695266 -269.191103 452.601761 678.927150 -1035.775490 -1668.555801 -741.727076 -332.575148 -1810.649896 -2652.883387 -2141.930990 -1826.682960 -1646.212008 -1529.200766 -1447.503266 -1387.545120 13271.665103 13271.665103 13271.665103 13256.575136 13155.971864 13222.161321 11893.053343 16790.653757 12065.908918 11374.644098 11508.660856 12326.560071 14756.711438 14277.300501 11761.752371 13188.569298 14702.465164 11839.881527 14443.333245 13544.174900 13454.488420 14568.074997 13521.005523 12567.041566 13373.059255 14734.077282 15751.719993 13441.925502 10811.055747 13114.501771 11453.612061 14377.293756 12188.929955 12799.110254 13926.721895 13950.026667 11891.906774 14921.198129 13732.225088 12930.042715 13759.812200 14249.519539 11577.759842 13711.727040 14263.092859 12972.801597 14331.939809 12848.939525 11976.935694 12608.930428 13706.504624 14297.903037 11911.176172 3804.170790 -107.794902 -888.591082 13449.335593 13449.335593 13449.335593 13366.183591 12386.766139 11786.044512 12339.291479 12361.145895 12027.336489 13198.548096 12949.940607 11397.013521 14125.281321 12014.333324 10940.242357 10874.433888 13274.663262 13484.627081 13350.555970 13296.344222 13280.743241 14337.445955 11858.419124 12723.505646 12160.890045 15069.818614 11771.616492 13253.642768 12482.753737 13803.719522 13419.017654 12618.247318 13658.332004 12506.794943 13428.674964 10929.127472 13423.671167 12327.441574 14991.131698 14075.635137 14325.152577 13589.616376 13127.473379 13464.546949 14149.925094 13560.848335 11780.339455 11585.836515 12539.060350 13924.473827 13944.041587 13743.855951 5898.126745 8488.745141 -58.349061 51.978831 13619.293301 13619.293301 13619.293301 13604.103636 13146.890628 13483.228010 12189.426884 14679.052235 11989.955857 11141.800445 9757.261446 10975.998639 12290.104673 13913.175557 12866.493591 11846.346197 13397.538162 12816.380919 11735.337010 13564.153895 15022.720726 12785.242092 11952.097711 13418.298317 13165.483828 14011.523783 12820.877592 12796.412036 14867.998253 15392.684412 13529.337236 12370.850567 14430.616438 13383.029986 15819.842058 14891.015127 13719.693734 14353.042712 13795.982271 13311.103754 13656.316190 15066.014886 13183.389550 14145.572185 14468.324735 13989.122325 13604.598271 14255.276645 15320.020155 14737.622419 11605.105391 12012.412965 845.297150 11931.675502 3117.702760 3545.183103 13745.828726 13745.828726 13745.828726 13716.741145 1362