<VTKFile type="PolyData">
<PolyData>
<Piece NumberOfPoints="8632" NumberOfVerts="8632" NumberOfLines="0" NumberOfStrips="0" NumberOfPolys="0">
<PointData>
<DataArray type="Float64" Name="Pressure" format="ascii">
 2412.149538 2412.149538 2412.149538 2469.789080 3086.080851 4514.671419 5658.310390 6393.616129 6741.720917 6818.787500 6737.224995 6570.680011 6361.503717 6131.880018 5893.300069 5652.224542 5412.708585 5177.085872 4946.318271 4720.389373 4498.502097 4279.622493 4063.065932 3848.744918 3637.085553 3428.891717 3225.154301 3026.701386 2833.923472 2646.755308 2464.886152 2288.018008 2116.016142 1948.925151 1786.920404 1630.288098 1479.448456 1334.939894 1197.296616 1066.856382 943.600167 827.164684 717.054471 612.990813 515.545288 426.806281 349.485757 284.980750 244.087393 257.066480 264.890150 121.550115 -105.266538 -338.232731 -607.566124 -761.505874 -720.653932 -570.195164 -407.112486 -273.953093 -177.208742 -111.000967 -67.383845 -39.566627 -22.415117 -12.225308 -6.409795 -3.227788 -1.560348 -0.723878 -0.322217 -0.137594 -0.056358 -0.022138 -0.008339 -0.003011 -0.001043 -0.000346 -0.000110 -0.000034 -0.000010 -0.000003 -0.000001 -0.000000 -0.000000 -0.000000 -0.000000 -0.000000 -0.000000 -0.000000 -0.000000 -0.000000 -0.000000 -0.000000 -0.000000 -0.000000 -0.000000 -0.000000 -0.000000 -0.000000 -0.000000 -0.000000 -0.000000 -0.000000 -0.000000 -0.000000 -0.000000 -0.000000 -0.000000 -0.000000 -0.000000 2412.149538 2412.149538 2412.149538 2469.789080 3086.080851 4514.671419 5658.310390 6393.616129 6741.720917 6818.787500 6737.224995 6570.680011 6361.503717 6131.880018 5893.300069 5652.224542 5412.708585 5177.085872 4946.318271 4720.389373 4498.502097 4279.622493 4063.065932 3848.744918 3637.085553 3428.891717 3225.154301 3026.701386 2833.923472 2646.755308 2464.886152 2288.018008 2116.016142 1948.925151 1786.920404 1630.288098 1479.448456 1334.939894 1197.296616 1066.856382 943.600167 827.164684 717.054471 612.990813 515.545288 426.806281 349.485757 284.980750 244.087393 257.066480 264.890150 121.550115 -105.266538 -338.232731 -607.566124 -761.505874 -720.653932 -570.195164 -407.112486 -273.953093 -177.208742 -111.000967 -67.383845 -39.566627 -22.415117 -12.225308 -6.409795 -3.227788 -1.560348 -0.723878 -0.322217 -0.137594 -0.056358 -0.022138 -0.008339 -0.003011 -0.001043 -0.000346 -0.000110 -0.000034 -0.000010 -0.000003 -0.000001 -0.000000 -0.000000 -0.000000 -0.000000 -0.000000 -0.000000 -0.000000 -0.000000 -0.000000 -0.000000 -0.000000 -0.000000 -0.000000 -0.000000 -0.000000 -0.000000 -0.000000 -0.000000 -0.000000 -0.000000 -0.000000 -0.000000 -0.000000 -0.000000 -0.000000 -0.000000 -0.000000 -0.000000 2412.149538 2412.149538 2412.149538 2469.789080 3086.080851 4514.671419 5658.310390 6393.616129 6741.720917 6818.787500 6737.224995 6570.680011 6361.503717 6131.880018 5893.300069 5652.224542 5412.708585 5177.085872 4946.318271 4720.389373 4498.502097 4279.622493 4063.065932 3848.744918 3637.085553 3428.891717 3225.154301 3026.701386 2833.923472 2646.755308 2464.886152 2288.018008 2116.016142 1948.925151 1786.920404 1630.288098 1479.448456 1334.939894 1197.296616 1066.856382 943.600167 827.164684 717.054471 612.990813 515.545288 426.806281 349.485757 284.980750 244.087393 257.066480 264.890150 121.550115 -105.266538 -338.232731 -607.566124 -761.505874 -720.653932 -570.195164 -407.112486 -273.953093 -177.208742 -111.000967 -67.383845 -39.566627 -22.415117 -12.225308 -6.409795 -3.227788 -1.560348 -0.723878 -0.322217 -0.137594 -0.056358 -0.022138 -0.008339 -0.003011 -0.001043 -0.000346 -0.000110 -0.000034 -0.000010 -0.000003 -0.000001 -0.000000 -0.000000 -0.000000 -0.000000 -0.000000 -0.000000 -0.000000 -0.000000 -0.000000 -0.000000 -0.000000 -0.000000 -0.000000 -0.000000 -0.000000 -0.000000 -0.000000 -0.000000 -0.000000 -0.000000 -0.000000 -0.000000 -0.000000 -0.000000 -0.000000 -0.000000 -0.000000 -0.000000 2534.501362 2534.501362 2534.501362 2597.182533 3289.773713 4893.070777 6144.031942 6927.576930 7282.532170 7346.430057 7239.970999 7048.770574 6821.337943 6579.499063 6333.052218 6086.800479 5843.337282 5602.686816 5364.256834 5127.768763 4893.088212 4660.599338 4430.844658 4204.372690 3981.702972 3763.698051 3551.620884 3346.521249 3148.675289 2957.502682 2771.895263 2590.730483 2413.277270 2239.286760 2068.839016 1902.177085 1739.675954 1581.912984 1429.689750 1283.889534 1145.145221 1013.595754 888.846848 770.268695 657.570374 553.049600 459.586028 377.190875 309.481092 319.272404 346.234208 143.168588 -126.556464 -355.919755 -699.973300 -883.589184 -802.937731 -609.949219 -423.105042 -279.882380 -179.242584 -111.615871 -67.514884 -39.551819 -22.370114 -12.185269 -6.381937 -3.210646 -1.550645 -0.718739 -0.319651 -0.136379 -0.055811 -0.021904 -0.008243 -0.002974 -0.001029 -0.000341 -0.000108 -0.000033 -0.000010 -0.000003 -0.000001 -0.000000 -0.000000 -0.000000 -0.000000 -0.000000 -0.000000 -0.000000 0.000000 0.000000 -0.000000 0.000000 -0.000000 0.000000 0.000000 -0.000000 0.000000 -0.000000 0.000000 0.000000 -0.000000 -0.000000 -0.000000 -0.000000 -0.000000 -0.000000 -0.000000 -0.000000 -0.000000 3916.921034 3916.921034 3916.921034 4069.841572 5815.868023 9495.097537 12069.820894 13549.077675 14069.912205 14109.320570 13722.363680 13168.073671 12640.183814 12178.950587 11786.834411 11461.334142 11188.189304 10920.580894 10615.165415 10249.041663 9830.117820 9391.792807 8967.891761 8574.511582 8213.296643 7885.179086 7589.270930 7322.636361 7080.088477 6853.700871 6632.800424 6406.052909 6165.148209 5906.545768 5630.494638 5338.455024 5030.704205 4707.479755 4371.072608 4027.717237 3687.608235 3362.303469 3058.695413 2776.615526 2496.274176 2223.457120 1951.457261 1704.978980 1157.531779 1010.830956 2052.025019 171.587251 -563.715511 52.074962 -2081.230060 -2482.045089 -1757.609597 -1011.233673 -580.553075 -337.425123 -198.831122 -117.479890 -68.723616 -39.370092 -21.910800 -11.783846 -6.104679 -3.040811 -1.454857 -0.668184 -0.294477 -0.124499 -0.050483 -0.019629 -0.007317 -0.002615 -0.000896 -0.000294 -0.000092 -0.000028 -0.000008 -0.000002 -0.000001 -0.000000 -0.000000 -0.000000 -0.000000 -0.000000 -0.000000 0.000000 -0.000000 -0.000000 -0.000000 -0.000000 0.000000 -0.000000 -0.000000 -0.000000 -0.000000 0.000000 -0.000000 -0.000000 0.000000 -0.000000 -0.000000 -0.000000 -0.000000 -0.000000 -0.000000 -0.000000 -0.000000 6040.588994 6040.588994 6040.588994 6358.037163 8906.297963 15958.264936 23024.589402 24851.794667 24873.522318 26052.032800 25085.666667 24237.742317 23171.305225 22089.775418 21169.551954 20500.447204 20114.461897 19791.689645 19457.045285 18922.167116 18166.871258 17326.988187 16511.678137 15807.371525 15241.272845 14819.117988 14493.013823 14200.369535 13901.089959 13576.222871 13220.865372 12835.426589 12419.540665 11973.208454 11500.785552 11009.940873 10505.933417 9991.158415 9456.554410 8890.441570 8295.441907 7704.956504 7147.101953 6671.340077 6161.902115 5687.951784 5100.980681 5005.493827 3232.695577 1323.862933 3362.671264 -1916.478705 -2171.401051 1360.275209 -5204.764103 -5366.342594 -3377.576287 -1667.670758 -824.552262 -426.701773 -229.994819 -127.497521 -71.374086 -39.659360 -21.588085 -11.412082 -5.827808 -2.866247 -1.355308 -0.615514 -0.268310 -0.112213 -0.045011 -0.017312 -0.006384 -0.002256 -0.000764 -0.000248 -0.000077 -0.000023 -0.000007 -0.000002 -0.000000 -0.000000 -0.000000 -0.000000 -0.000000 -0.000000 0.000000 0.000000 0.000000 0.000000 0.000000 0.000000 0.000000 0.000000 0.000000 0.000000 0.000000 0.000000 0.000000 0.000000 0.000000 0.000000 -0.000000 -0.000000 -0.000000 -0.000000 -0.000000 -0.000000 -0.000000 -0.000000 -0.000000 -0.000000 -0.000000 -0.000000 -0.000000 -0.000000 -0.000000 -0.000000 -0.000000 -0.000000 -0.000000 -0.000000 -0.000000 -0.000000 -0.000000 -0.000000 -0.000000 -0.000000 -0.000000 -0.000000 -0.000000 -0.000000 -0.000000 -0.000000 -0.000000 -0.000000 -0.000000 -0.000000 -0.000000 -0.000000 -0.000000 -0.000000 -0.000000 -0.000000 -0.000000 -0.000000 -0.000000 -0.000000 -0.000000 -0.000000 -0.000000 -0.000000 -0.000000 -0.000000 -0.000000 -0.000000 -0.000000 -0.000000 -0.000000 -0.000000 -0.000000 -0.000000 -0.000000 -0.000000 -0.000000 -0.000000 -0.000000 -0.000000 -0.000000 -0.000000 -0.000000 -0.000000 -0.000000 -0.000000 -0.000000 -0.000000 -0.000000 -0.000000 -0.000000 -0.000000 -0.000000 -0.000000 -0.000000 -0.000000 -0.000000 -0.000000 -0.000000 -0.000000 -0.000000 -0.000000 -0.000000 -0.000000 -0.000000 -0.000000 -0.000000 -0.000000 -0.000000 -0.000000 -0.000000 -0.000000 -0.000000 -0.000000 -0.000000 -0.000000 -0.000000 -0.000000 -0.000000 -0.000000 -0.000000 -0.000000 -0.000000 -0.000000 -0.000000 -0.000000 -0.000000 -0.000000 -0.000000 -0.000000 -0.000000 -0.000000 -0.000000 -0.000000 -0.000000 -0.000000 -0.000000 -0.000000 -0.000000 -0.000000 -0.000000 -0.000000 -0.000000 -0.000000 -0.000000 -0.000000 -0.000000 -0.000000 -0.000000 -0.000000 -0.000000 -0.000000 -0.000000 -0.000000 -0.000000 -0.000000 -0.000000 -0.000000 -0.000000 -0.000000 -0.000000 -0.000000 -0.000000 -0.000000 -0.000000 -0.000000 -0.000000 -0.000000 -0.000000 -0.000000 -0.000000 -0.000000 -0.000000 -0.000000 -0.000000 -0.000000 -0.000000 -0.000000 -0.000000 -0.000000 -0.000000 -0.000000 -0.000000 -0.000000 -0.000000 -0.000000 -0.000000 -0.000000 -0.000000 -0.000000 -0.000000 -0.000000 -0.000000 -0.000000 -0.000000 -0.000000 -0.000000 -0.000000 -0.000000 -0.000000 -0.000000 -0.000000 -0.000000 -0.000000 -0.000000 -0.000000 -0.000000 -0.000000 -0.000000 -0.000000 -0.000000 -0.000000 -0.000000 -0.000000 -0.000000 -0.000000 -0.000000 -0.000000 -0.000000 -0.000000 -0.000000 -0.000000 -0.000000 -0.000000 -0.000000 -0.000000 -0.000000 -0.000000 -0.000000 -0.000000 -0.000000 -0.000000 -0.000000 -0.000000 -0.000000 -0.000000 -0.000000 -0.000000 -0.000000 -0.000000 -0.000000 -0.000000 -0.000000 -0.000000 -0.000000 -0.000000 -0.000000 -0.000000 -0.000000 -0.000000 -0.000000 -0.000000 -0.000000 -0.000000 -0.000000 -0.000000 -0.000000 -0.000000 -0.000000 -0.000000 -0.000000 -0.000000 -0.000000 -0.000000 -0.000000 -0.000000 -0.000000 -0.000000 -0.000000 -0.000000 -0.000000 -0.000000 -0.000000 -0.000000 -0.000000 -0.000000 -0.000000 -0.000000 -0.000000 -0.000000 -0.000000 -0.000000 -0.000000 -0.000000 -0.000000 -0.000000 -0.000000 -0.000000 0.000000 0.000000 0.000000 -0.000000 -0.000000 -0.000000 0.000000 0.000000 0.000000 -0.000000 -0.000000 -0.000000 0.000000 0.000000 0.000000 -0.000000 -0.000000 -0.000000 0.000000 0.000000 0.000000 -0.000000 -0.000000 -0.000000 0.000000 0.000000 0.000000 -0.000000 -0.000000 -0.000000 0.000000 0.000000 0.000000 -0.000000 -0.000000 -0.000000 0.000000 0.000000 0.000000 -0.000000 -0.000000 -0.000000 0.000000 0.000000 0.000000 -0.000000 -0.000000 -0.000000 0.000000 0.000000 0.000000 -0.000000 -0.000000 -0.000000 0.000000 0.000000 0.000000 -0.000000 -0.000000 -0.000000 0.000000 0.000000 0.000000 -0.000000 -0.000000 -0.000000 0.000000 0.000000 0.000000 -0.000000 -0.000000 -0.000000 0.000000 0.000000 0.000000 -0.000000 -0.000000 -0.000000 0.000000 0.000000 0.000000 -0.000000 -0.000000 -0.000000 0.000000 0.000000 0.000000 -0.000000 -0.000000 -0.000000 0.000000 0.000000 0.000000 -0.000000 -0.000000 -0.000000 0.000000 0.000000 0.000000 -0.000000 -0.000000 -0.000000 0.000000 0.000000 0.000000 -0.000000 -0.000000 -0.000000 0.000000 0.000000 0.000000 -0.000000 -0.000000 -0.000000 0.000000 0.000000 0.000000 -0.000000 -0.000000 -0.000000 0.000000 0.000000 0.000000 -0.000000 -0.000000 -0.000000 0.000000 0.000000 0.000000 -0.000000 -0.000000 -0.000000 0.000000 0.000000 0.000000 -0.000000 -0.000000 -0.000000 0.000000 0.000000 0.000000 -0.000000 -0.000000 -0.000000 0.000000 0.000000 0.000000 -0.000000 -0.000000 -0.000000 0.000000 0.000000 0.000000 -0.000000 -0.000000 -0.000000 0.000000 0.000000 0.000000 -0.000000 -0.000000 -0.000000 0.000000 0.000000 0.000000 -0.000000 -0.000000 -0.000000 0.000000 0.000000 0.000000 -0.000000 -0.000000 -0.000000 0.000000 0.000000 0.000000 -0.000000 -0.000000 -0.000000 0.000000 0.000000 0.000000 -0.000000 -0.000000 -0.000000 0.000000 0.000000 0.000000 -0.000000 -0.000000 -0.000000 0.000000 0.000000 0.000000 -0.000000 -0.000000 -0.000000 0.000000 0.000000 0.000000 -0.000000 -0.000000 -0.000000 0.000000 0.000000 0.000000 -0.000000 -0.000000 -0.000000 0.000000 0.000000 0.000000 -0.000000 -0.000000 -0.000000 0.000000 0.000000 0.000000 -0.000000 -0.000000 -0.000000 0.000000 0.000000 0.000000 -0.000000 -0.000000 -0.000000 0.000000 0.000000 0.000000 -0.000000 -0.000000 -0.000000 0.000000 0.000000 0.000000 -0.000000 -0.000000 -0.000000 0.000000 0.000000 0.000000 -0.000000 -0.000000 -0.000000 0.000000 0.000000 0.000000 -0.000000 -0.000000 -0.000000 0.000000 0.000000 0.000000 -0.000000 -0.000000 -0.000000 0.000000 0.000000 0.000000 -0.000000 -0.000000 -0.000000 0.000000 0.000000 0.000000 -0.000000 -0.000000 -0.000000 0.000000 0.000000 0.000000 -0.000000 -0.000000 -0.000000 0.000000 0.000000 0.000000 -0.000000 -0.000000 -0.000000 0.000000 0.000000 0.000000 -0.000000 -0.000000 -0.000000 0.000000 0.000000 0.000000 -0.000000 -0.000000 -0.000000 0.000000 0.000000 0.000000 -0.000000 -0.000000 -0.000000 0.000000 0.000000 0.000000 -0.000000 -0.000000 -0.000000 0.000000 0.000000 0.000000 -0.000000 -0.000000 -0.000000 0.000000 0.000000 0.000000 -0.000000 -0.000000 -0.000000 0.000000 0.000000 0.000000 -0.000000 -0.000000 -0.000000 0.000000 0.000000 0.000000 -0.000000 -0.000000 -0.000000 0.000000 0.000000 0.000000 -0.000000 -0.000000 -0.000000 0.000000 0.000000 0.000000 -0.000000 -0.000000 -0.000000 0.000000 0.000000 0.000000 -0.000000 -0.000000 -0.000000 0.000000 0.000000 0.000000 -0.000000 -0.000000 -0.000000 0.000000 0.000000 0.000000 -0.000000 -0.000000 -0.000000 0.000000 0.000000 0.000000 -0.000000 -0.000000 -0.000000 0.000000 0.000000 0.000000 -0.000000 -0.000000 -0.000000 0.000000 0.000000 0.000000 -0.000000 -0.000000 -0.000000 0.000000 0.000000 0.000000 -0.000000 -0.000000 -0.000000 0.000000 0.000000 0.000000 -0.000000 -0.000000 -0.000000 0.000000 0.000000 0.000000 -0.000000 -0.000000 -0.000000 0.000000 0.000000 0.000000 -0.000000 -0.000000 -0.000000 0.000000 0.000000 0.000000 -0.000000 -0.000000 -0.000000 0.000000 0.000000 0.000000 -0.000000 -0.000000 -0.000000 0.000000 0.000000 0.000000 -0.000000 -0.000000 -0.000000 0.000000 0.000000 0.000000 -0.000000 -0.000000 -0.000000 0.000000 0.000000 0.000000 -0.000000 -0.000000 -0.000000 0.000000 0.000000 0.000000 -0.000000 -0.000000 -0.000000 0.000000 0.000000 0.000000 -0.000000 -0.000000 -0.000000 0.000000 0.000000 0.000000 -0.000000 -0.000000 -0.000000 0.000000 0.000000 0.000000 -0.000000 -0.000000 -0.000000 0.000000 0.000000 0.000000 -0.000000 -0.000000 -0.000000 0.000000 0.000000 0.000000 -0.000000 -0.000000 -0.000000 0.000000 0.000000 0.000000 -0.000000 -0.000000 -0.000000 0.000000 0.000000 0.000000 -0.000000 -0.000000 -0.000000 0.000000 0.000000 0.000000 -0.000000 -0.000000 -0.000000 0.000000 0.000000 0.000000 -0.000000 -0.000000 -0.000000 0.000000 0.000000 0.000000 -0.000000 -0.000000 -0.000000 0.000000 0.000000 0.000000 -0.000000 -0.000000 -0.000000 0.000000 0.000000 0.000000 -0.000000 -0.000000 -0.000000 0.000000 0.000000 0.000000 -0.000000 -0.000000 -0.000000 0.000000 0.000000 0.000000 -0.000000 -0.000000 -0.000000 0.000000 0.000000 0.000000 -0.000000 -0.000000 -0.000000 0.000000 0.000000 0.000000 -0.000000 -0.000000 -0.000000 0.000000 0.000000 0.000000 -0.000000 -0.000000 -0.000000 0.000000 0.000000 0.000000 -0.000000 -0.000000 -0.000000 0.000000 0.000000 0.000000 -0.000000 -0.000000 -0.000000 0.000000 0.000000 0.000000 -0.000000 -0.000000 -0.000000 0.000000 0.000000 0.000000 -0.000000 -0.000000 -0.000000 0.000000 0.000000 0.000000 -0.000000 -0.000000 -0.000000 0.000000 0.000000 0.000000 -0.000000 -0.000000 -0.000000 0.000000 0.000000 0.000000 -0.000000 -0.000000 -0.000000 0.000000 0.000000 0.000000 -0.000000 -0.000000 -0.000000 0.000000 0.000000 0.000000 -0.000000 -0.000000 -0.000000 0.000000 0.000000 0.000000 -0.000000 -0.000000 -0.000000 0.000000 0.000000 0.000000 -0.000000 -0.000000 -0.000000 0.000000 0.000000 0.000000 -0.000000 -0.000000 -0.000000 0.000000 0.000000 0.000000 -0.000000 -0.000000 -0.000000 0.000000 0.000000 0.000000 -0.000000 -0.000000 -0.000000 0.000000 0.000000 0.000000 -0.000000 -0.000000 -0.000000 0.000000 0.000000 0.000000 -0.000000 -0.000000 -0.000000 0.000000 0.000000 0.000000 -0.000000 -0.000000 -0.000000 0.000000 0.000000 0.000000 -0.000000 -0.000000 -0.000000 0.000000 0.000000 0.000000 -0.000000 -0.000000 -0.000000 0.000000 0.000000 0.000000 -0.000000 -0.000000 -0.000000 0.000000 0.000000 0.000000 -0.000000 -0.000000 -0.000000 0.000000 0.000000 0.000000 -0.000000 -0.000000 -0.000000 0.000000 0.000000 0.000000 -0.000000 -0.000000 -0.000000 0.000000 0.000000 0.000000 -0.000000 -0.000000 -0.000000 0.000000 0.000000 0.000000 -0.000000 -0.000000 -0.000000 0.000000 0.000000 0.000000 -0.000000 -0.000000 -0.000000 -0.000000 -0.000000 -0.000000 -0.000000 -0.000000 -0.000000 -0.000000 -0.000000 -0.000000 -0.000000 -0.000000 -0.000000 -0.000000 -0.000000 -0.000000 -0.000000 -0.000000 -0.000000 -0.000000 -0.000000 -0.000000 -0.000000 -0.000000 -0.000000 -0.000000 -0.000000 -0.000000 0.000000 -0.000000 -0.000000 -0.000000 -0.000000 -0.000000 0.000000 -0.000000 -0.000000 -0.000000 -0.000000 -0.000000 0.000000 -0.000000 -0.000000 -0.000000 -0.000000 -0.000000 0.000000 -0.000000 -0.000000 -0.000000 -0.000000 -0.000000 0.000000 -0.000000 -0.000000 -0.000000 -0.000000 -0.000000 0.000000 -0.000000 -0.000000 -0.000000 -0.000000 -0.000000 0.000000 -0.000000 -0.000000 -0.000000 -0.000000 -0.000000 0.000000 -0.000000 -0.000000 -0.000000 -0.000000 -0.000000 0.000000 -0.000000 -0.000000 -0.000000 -0.000000 -0.000000 0.000000 -0.000000 -0.000000 -0.000000 -0.000000 -0.000000 0.000000 -0.000000 -0.000000 -0.000000 -0.000000 -0.000000 0.000000 -0.000000 -0.000000 -0.000000 -0.000000 -0.000000 0.000000 -0.000000 -0.000000 -0.000000 -0.000000 -0.000000 0.000000 -0.000000 -0.000000 -0.000000 -0.000000 -0.000000 0.000000 -0.000000 -0.000000 -0.000000 -0.000000 -0.000000 0.000000 -0.000000 -0.000000 -0.000000 -0.000000 -0.000000 0.000000 -0.000000 -0.000000 -0.000000 -0.000000 -0.000000 0.000000 -0.000000 -0.000000 -0.000000 -0.000000 -0.000000 0.000000 -0.000000 -0.000000 -0.000000 -0.000000 -0.000000 0.000000 -0.000000 -0.000000 -0.000000 -0.000000 -0.000000 0.000000 -0.000000 -0.000000 -0.000000 -0.000000 -0.000000 0.000000 -0.000000 -0.000000 -0.000000 -0.000000 -0.000000 0.000000 -0.000000 -0.000000 -0.000000 -0.000000 -0.000000 0.000000 -0.000000 -0.000000 -0.000000 -0.000000 -0.000000 0.000000 -0.000000 -0.000000 -0.000000 -0.000000 -0.000000 0.000000 -0.000000 -0.000000 -0.000000 -0.000000 -0.000000 0.000000 -0.000000 -0.000000 -0.000000 -0.000000 -0.000000 0.000000 -0.000000 -0.000000 -0.000000 -0.000000 -0.000000 0.000000 -0.000000 -0.000000 -0.000000 -0.000000 -0.000000 0.000000 -0.000000 -0.000000 -0.000000 -0.000000 -0.000000 0.000000 -0.000000 -0.000000 -0.000000 -0.000000 -0.000000 0.000000 -0.000000 -0.000000 -0.000000 -0.000000 -0.000000 0.000000 -0.000000 -0.000000 -0.000000 -0.000000 -0.000000 0.000000 -0.000000 -0.000000 -0.000000 -0.000000 -0.000000 -0.000000 -0.000000 0.000000 0.000000 0.000000 0.000000 7030.528893 7030.528893 7030.528893 7543.266351 13452.214020 16669.998225 12106.732165 16052.917434 15514.391186 15504.443452 12081.616157 10845.473477 10441.770379 8968.612097 8128.272165 7724.471223 7576.236058 7383.941565 7097.527740 6595.749341 5676.278621 4629.294562 4088.606846 2109.532604 295.963042 1586.272765 1095.567220 308.041424 51.281084 -46.960526 -74.640131 -70.466198 -54.507561 -37.266540 -23.238028 -13.440849 -7.286737 -3.728440 -1.809125 -0.835175 -0.367645 -0.154554 -0.062112 -0.023878 -0.008785 -0.003094 -0.001044 -0.000337 -0.000104 -0.000031 -0.000009 -0.000002 -0.000001 -0.000000 -0.000000 -0.000000 -0.000000 -0.000000 -0.000000 -0.000000 -0.000000 -0.000000 -0.000000 -0.000000 -0.000000 -0.000000 -0.000000 -0.000000 -0.000000 -0.000000 -0.000000 -0.000000 -0.000000 -0.000000 -0.000000 -0.000000 -0.000000 -0.000000 -0.000000 -0.000000 -0.000000 -0.000000 -0.000000 -0.000000 -0.000000 -0.000000 -0.000000 -0.000000 -0.000000 -0.000000 -0.000000 -0.000000 -0.000000 -0.000000 -0.000000 -0.000000 -0.000000 -0.000000 -0.000000 -0.000000 -0.000000 -0.000000 -0.000000 -0.000000 -0.000000 -0.000000 -0.000000 0.000000 -0.000000 -0.000000 -0.000000 4781.162240 4781.162240 4781.162240 4976.938757 7162.420406 8355.795236 8533.062322 11280.274265 11653.593817 14617.512137 12904.390993 10238.510407 9065.924091 8120.607091 7588.999994 7192.896414 6803.054266 6321.294227 5757.508756 5102.796574 4302.204549 3458.681939 2733.165088 1417.336971 -45.252808 151.907254 376.257642 174.303094 20.597901 -50.704767 -72.328799 -67.919453 -53.029271 -36.731839 -23.227957 -13.624885 -7.488143 -3.882268 -1.907758 -0.891523 -0.397122 -0.168887 -0.068647 -0.026689 -0.009929 -0.003536 -0.001206 -0.000394 -0.000123 -0.000037 -0.000011 -0.000003 -0.000001 -0.000000 -0.000000 -0.000000 -0.000000 -0.000000 -0.000000 -0.000000 -0.000000 0.000000 -0.000000 -0.000000 0.000000 -0.000000 -0.000000 -0.000000 -0.000000 -0.000000 -0.000000 -0.000000 -0.000000 -0.000000 0.000000 -0.000000 -0.000000 0.000000 -0.000000 -0.000000 -0.000000 -0.000000 -0.000000 -0.000000 -0.000000 -0.000000 -0.000000 0.000000 -0.000000 -0.000000 0.000000 -0.000000 -0.000000 -0.000000 -0.000000 -0.000000 -0.000000 -0.000000 -0.000000 -0.000000 0.000000 -0.000000 -0.000000 0.000000 -0.000000 -0.000000 -0.000000 -0.000000 -0.000000 -0.000000 -0.000000 3495.330716 3495.330716 3495.330716 3590.819848 4586.746138 6569.797986 8304.157191 9617.841885 9994.783970 10027.469690 9185.921575 8161.117289 7361.997796 6755.323251 6244.044554 5761.363437 5267.547487 4747.521809 4201.779099 3632.517136 3043.768262 2449.552936 1844.084508 1220.873275 701.073889 405.464558 233.433148 96.506368 -0.928371 -52.830473 -69.678561 -65.369861 -51.657347 -36.329935 -23.339640 -13.904497 -7.756738 -4.079289 -2.032104 -0.962167 -0.434069 -0.186905 -0.076905 -0.030263 -0.011396 -0.004108 -0.001418 -0.000469 -0.000148 -0.000045 -0.000013 -0.000004 -0.000001 -0.000000 -0.000000 -0.000000 -0.000000 -0.000000 -0.000000 -0.000000 -0.000000 -0.000000 -0.000000 -0.000000 -0.000000 -0.000000 -0.000000 -0.000000 -0.000000 -0.000000 -0.000000 -0.000000 -0.000000 -0.000000 -0.000000 -0.000000 -0.000000 -0.000000 -0.000000 -0.000000 -0.000000 -0.000000 -0.000000 -0.000000 -0.000000 -0.000000 -0.000000 -0.000000 -0.000000 -0.000000 -0.000000 -0.000000 -0.000000 -0.000000 -0.000000 -0.000000 -0.000000 -0.000000 -0.000000 -0.000000 -0.000000 -0.000000 -0.000000 -0.000000 -0.000000 -0.000000 -0.000000 0.000000 0.000000 0.000000 0.000000 3319.108253 3319.108253 3319.108253 3408.363823 4340.534679 6466.945073 8210.482660 9345.461611 9695.254898 9394.445464 8660.123818 7812.687457 7089.124372 6502.715040 5990.168451 5499.631690 5003.036669 4489.970445 3959.583255 3413.925898 2857.134013 2296.015320 1734.199497 1190.374391 735.073935 426.963901 228.275908 88.884136 -3.604979 -52.991295 -69.193300 -64.942694 -51.439690 -36.277015 -23.371120 -13.961172 -7.808586 -4.116690 -2.055557 -0.975467 -0.441030 -0.190307 -0.078469 -0.030943 -0.011676 -0.004217 -0.001459 -0.000483 -0.000153 -0.000047 -0.000014 -0.000004 -0.000001 -0.000000 -0.000000 -0.000000 -0.000000 -0.000000 -0.000000 -0.000000 -0.000000 -0.000000 -0.000000 -0.000000 -0.000000 -0.000000 -0.000000 -0.000000 -0.000000 -0.000000 -0.000000 -0.000000 -0.000000 -0.000000 -0.000000 -0.000000 -0.000000 -0.000000 -0.000000 -0.000000 -0.000000 -0.000000 -0.000000 -0.000000 -0.000000 -0.000000 -0.000000 -0.000000 -0.000000 -0.000000 -0.000000 -0.000000 -0.000000 -0.000000 -0.000000 -0.000000 -0.000000 -0.000000 -0.000000 -0.000000 -0.000000 -0.000000 -0.000000 -0.000000 -0.000000 0.000000 0.000000 0.000000 0.000000 0.000000 0.000000 3319.108253 3319.108253 3319.108253 3408.363823 4340.534679 6466.945073 8210.482660 9345.461611 9695.254898 9394.445464 8660.123818 7812.687457 7089.124372 6502.715040 5990.168451 5499.631690 5003.036669 4489.970445 3959.583255 3413.925898 2857.134013 2296.015320 1734.199497 1190.374391 735.073935 426.963901 228.275908 88.884136 -3.604979 -52.991295 -69.193300 -64.942694 -51.439690 -36.277015 -23.371120 -13.961172 -7.808586 -4.116690 -2.055557 -0.975467 -0.441030 -0.190307 -0.078469 -0.030943 -0.011676 -0.004217 -0.001459 -0.000483 -0.000153 -0.000047 -0.000014 -0.000004 -0.000001 -0.000000 -0.000000 -0.000000 -0.000000 -0.000000 -0.000000 -0.000000 -0.000000 -0.000000 -0.000000 -0.000000 -0.000000 -0.000000 -0.000000 -0.000000 -0.000000 -0.000000 -0.000000 -0.000000 -0.000000 -0.000000 -0.000000 -0.000000 -0.000000 -0.000000 -0.000000 -0.000000 -0.000000 -0.000000 -0.000000 -0.000000 -0.000000 -0.000000 -0.000000 -0.000000 -0.000000 -0.000000 -0.000000 -0.000000 -0.000000 -0.000000 -0.000000 -0.000000 -0.000000 -0.000000 -0.000000 -0.000000 -0.000000 -0.000000 -0.000000 -0.000000 -0.000000 0.000000 0.000000 0.000000 0.000000 0.000000 0.000000 3319.108253 3319.108253 3319.108253 3408.363823 4340.534679 6466.945073 8210.482660 9345.461611 9695.254898 9394.445464 8660.123818 7812.687457 7089.124372 6502.715040 5990.168451 5499.631690 5003.036669 4489.970445 3959.583255 3413.925898 2857.134013 2296.015320 1734.199497 1190.374391 735.073935 426.963901 228.275908 88.884136 -3.604979 -52.991295 -69.193300 -64.942694 -51.439690 -36.277015 -23.371120 -13.961172 -7.808586 -4.116690 -2.055557 -0.975467 -0.441030 -0.190307 -0.078469 -0.030943 -0.011676 -0.004217 -0.001459 -0.000483 -0.000153 -0.000047 -0.000014 -0.000004 -0.000001 -0.000000 -0.000000 -0.000000 -0.000000 -0.000000 -0.000000 -0.000000 -0.000000 -0.000000 -0.000000 -0.000000 -0.000000 -0.000000 -0.000000 -0.000000 -0.000000 -0.000000 -0.000000 -0.000000 -0.000000 -0.000000 -0.000000 -0.000000 -0.000000 -0.000000 -0.000000 -0.000000 -0.000000 -0.000000 -0.000000 -0.000000 -0.000000 -0.000000 -0.000000 -0.000000 -0.000000 -0.000000 -0.000000 -0.000000 -0.000000 -0.000000 -0.000000 -0.000000 -0.000000 -0.000000 -0.000000 -0.000000 -0.000000 -0.000000 -0.000000 -0.000000 -0.000000 0.000000 0.000000 0.000000 0.000000 0.000000 0.000000 6339.262135 6339.262135 6339.262135 6672.548266 9129.404452 17005.808920 25892.957299 27212.341795 26228.302327 27812.075580 26925.189671 26134.722416 25109.865105 23908.077322 22860.268956 22040.498276 21557.572791 21168.435588 20855.720044 20350.389973 19591.585416 18722.842974 17851.193880 17085.039696 16476.210735 16022.156939 15681.648853 15391.308489 15106.034146 14790.871964 14430.167442 14034.482779 13598.233267 13113.002469 12590.430664 12045.549621 11490.221856 10926.904755 10348.539282 9751.153596 9133.184937 8522.273388 7945.240473 7461.919441 6942.236721 6464.718253 5810.296032 5811.076829 3546.879781 728.457550 1883.365915 -3226.955742 -2724.625167 1422.719851 -5732.567121 -5736.431314 8302.676720 8302.676720 8302.676720 8684.538432 12082.650925 28721.138689 37642.714143 46920.980187 43845.609995 36016.688290 36510.732837 38982.935764 38803.805640 38967.382935 37596.022982 36043.706520 34463.911785 33008.788153 31882.628390 30846.323713 30363.170981 30078.754118 29705.645133 29255.172857 28589.521888 27783.589749 26995.336509 26319.363034 25776.876780 25311.216156 24863.024473 24368.423269 23795.734848 23170.325558 22540.302619 21938.265574 21350.262000 20743.383715 20114.769340 19498.007661 18945.187706 18482.180843 18079.386882 17674.979050 17212.666415 16682.849694 16121.647376 15559.034876 15073.841747 14329.713153 13550.483693 11310.943559 9745.166920 8621.321726 3377.636066 3290.385257 10992.009979 10992.009979 10992.009979 11592.331135 16807.349248 37101.681260 65778.218418 67924.322328 56876.915878 46179.716317 45619.996570 49898.674978 48534.485126 48755.249491 47375.683163 45839.505681 44261.365104 42760.767211 41567.747471 40013.186086 39324.672666 38975.342407 38671.844807 38383.684943 37743.059575 36814.426804 35766.769926 34748.489100 33863.182897 33095.400948 32414.868637 31777.437757 31158.581947 30564.310536 30025.986630 29569.609420 29171.641105 28756.492185 28242.358010 27597.735705 26848.345957 26046.902375 25222.605220 24356.646492 23409.860720 22341.442139 21216.012038 19931.108010 18833.478875 17122.766377 16076.341180 14339.080219 9873.276919 6876.272579 4046.171728 1733.742653 12729.989224 12729.989224 12729.989224 13282.935906 16222.691266 31878.762386 45979.721809 69671.000576 66460.232840 50305.837766 49081.800076 56885.708662 53073.357823 54024.305672 51684.052889 50503.751002 48581.288359 47525.839924 46212.135250 44560.993044 43648.837826 42734.267152 41844.056353 41015.161134 39935.007034 38797.350157 37695.097281 36689.257237 35830.818409 35074.007636 34383.648196 33683.142228 32906.517275 32035.925532 31107.616298 30189.210387 29322.170994 28492.625037 27646.151309 26733.040736 25742.228481 24700.473713 23646.516420 22582.407183 21503.390693 20329.869316 19147.290523 17710.762732 16501.144699 14904.662255 12814.895800 11571.431366 9732.088729 6953.774494 3089.306645 1629.493383 13843.207263 13843.207263 13843.207263 14335.332918 19343.718628 36805.087864 44711.336414 67664.836784 58703.538208 46936.841897 51925.722629 56774.274983 53464.667309 53868.153378 52103.958708 50866.228802 48616.782152 47469.788381 45624.942048 44157.235255 43330.771836 42557.309557 41798.779675 41002.903932 39828.273059 38553.281117 37255.436034 36033.300944 34967.030739 34019.003866 33177.293920 32377.711465 31561.684015 30698.047657 29791.803585 28885.479948 28017.435006 27190.894737 26371.823672 25518.967473 24620.803543 23701.614382 22814.215232 21969.654760 21180.587386 20338.350121 19511.227484 18451.896570 17272.799086 16220.389984 14529.170766 12376.547779 10045.386035 8023.285149 4981.555905 1891.370213 14545.151536 14545.151536 14545.151536 15466.364801 28444.528790 49078.062160 49814.755016 56765.271961 60553.962730 48784.030059 50191.318467 54493.557695 52619.54043