<VTKFile type="PolyData">
<PolyData>
<Piece NumberOfPoints="8632" NumberOfVerts="8632" NumberOfLines="0" NumberOfStrips="0" NumberOfPolys="0">
<PointData>
<DataArray type="Float64" Name="Pressure" format="ascii">
 12406.225232 12406.225232 12406.225232 12407.318709 12417.837344 12433.202692 12408.706938 12323.690786 12172.873123 11956.077654 11669.821919 11308.284563 10872.774517 10389.036004 9889.243505 9383.532618 8864.376034 8323.443158 7769.046979 7225.142701 6706.103404 6196.979688 5662.210318 5074.526075 4449.849769 3826.280544 3196.502697 2541.006990 1925.791724 1470.886462 1220.472270 1047.511141 815.067805 532.282644 252.692246 42.450030 -77.765447 -135.647893 -190.787688 -286.230366 -377.929216 -410.304998 -404.984536 -425.788408 -528.824720 -692.109543 -830.362483 -942.020551 -1089.680296 -1273.889657 -1409.219124 -1460.183074 -1453.742071 -1417.632995 -1366.347762 -1306.868277 -1242.612357 -1176.073259 -1109.388897 -1043.812713 -979.896089 -917.880974 -857.895823 -800.034646 -744.381335 -691.012970 -639.996533 -591.384765 -545.213139 -501.498410 -460.238579 -421.413891 -384.988509 -350.912540 -319.124163 -289.551708 -262.115593 -236.730058 -213.304703 -191.745826 -171.957579 -153.842982 -137.304796 -122.246286 -108.571892 -96.187810 -85.002500 -74.927121 -65.875899 -57.766434 -50.519940 -44.061431 -38.319845 -33.228117 -28.723206 -24.746068 -21.241598 -18.158535 -15.449354 -13.070162 -10.980677 -9.144424 -7.529528 -6.110785 -4.873544 -3.813658 -2.910748 -2.334879 -2.226597 -2.226597 -2.226597 12406.225232 12406.225232 12406.225232 12407.318709 12417.837344 12433.202692 12408.706938 12323.690786 12172.873123 11956.077654 11669.821919 11308.284563 10872.774517 10389.036004 9889.243505 9383.532618 8864.376034 8323.443158 7769.046979 7225.142701 6706.103404 6196.979688 5662.210318 5074.526075 4449.849769 3826.280544 3196.502697 2541.006990 1925.791724 1470.886462 1220.472270 1047.511141 815.067805 532.282644 252.692246 42.450030 -77.765447 -135.647893 -190.787688 -286.230366 -377.929216 -410.304998 -404.984536 -425.788408 -528.824720 -692.109543 -830.362483 -942.020551 -1089.680296 -1273.889657 -1409.219124 -1460.183074 -1453.742071 -1417.632995 -1366.347762 -1306.868277 -1242.612357 -1176.073259 -1109.388897 -1043.812713 -979.896089 -917.880974 -857.895823 -800.034646 -744.381335 -691.012970 -639.996533 -591.384765 -545.213139 -501.498410 -460.238579 -421.413891 -384.988509 -350.912540 -319.124163 -289.551708 -262.115593 -236.730058 -213.304703 -191.745826 -171.957579 -153.842982 -137.304796 -122.246286 -108.571892 -96.187810 -85.002500 -74.927121 -65.875899 -57.766434 -50.519940 -44.061431 -38.319845 -33.228117 -28.723206 -24.746068 -21.241598 -18.158535 -15.449354 -13.070162 -10.980677 -9.144424 -7.529528 -6.110785 -4.873544 -3.813658 -2.910748 -2.334879 -2.226597 -2.226597 -2.226597 12406.225232 12406.225232 12406.225232 12407.318709 12417.837344 12433.202692 12408.706938 12323.690786 12172.873123 11956.077654 11669.821919 11308.284563 10872.774517 10389.036004 9889.243505 9383.532618 8864.376034 8323.443158 7769.046979 7225.142701 6706.103404 6196.979688 5662.210318 5074.526075 4449.849769 3826.280544 3196.502697 2541.006990 1925.791724 1470.886462 1220.472270 1047.511141 815.067805 532.282644 252.692246 42.450030 -77.765447 -135.647893 -190.787688 -286.230366 -377.929216 -410.304998 -404.984536 -425.788408 -528.824720 -692.109543 -830.362483 -942.020551 -1089.680296 -1273.889657 -1409.219124 -1460.183074 -1453.742071 -1417.632995 -1366.347762 -1306.868277 -1242.612357 -1176.073259 -1109.388897 -1043.812713 -979.896089 -917.880974 -857.895823 -800.034646 -744.381335 -691.012970 -639.996533 -591.384765 -545.213139 -501.498410 -460.238579 -421.413891 -384.988509 -350.912540 -319.124163 -289.551708 -262.115593 -236.730058 -213.304703 -191.745826 -171.957579 -153.842982 -137.304796 -122.246286 -108.571892 -96.187810 -85.002500 -74.927121 -65.875899 -57.766434 -50.519940 -44.061431 -38.319845 -33.228117 -28.723206 -24.746068 -21.241598 -18.158535 -15.449354 -13.070162 -10.980677 -9.144424 -7.529528 -6.110785 -4.873544 -3.813658 -2.910748 -2.334879 -2.226597 -2.226597 -2.226597 12419.861044 12419.861044 12419.861044 12420.898494 12432.986536 12454.417621 12433.798003 12351.406224 12207.723948 11999.930454 11719.649863 11359.818108 10914.502375 10420.903596 9923.532906 9427.881493 8918.845344 8372.993555 7801.571520 7250.872383 6742.261443 6247.578168 5715.705433 5108.488844 4455.710782 3825.771469 3191.136540 2494.939103 1845.510215 1396.418139 1218.340995 1092.035228 831.094466 530.676981 235.595116 31.939495 -69.393947 -108.122818 -152.968055 -274.276988 -393.276254 -419.270557 -393.314382 -395.263133 -499.094144 -706.498117 -838.441153 -927.258861 -1092.280586 -1315.340172 -1436.835199 -1480.529075 -1465.163467 -1423.949800 -1370.136131 -1309.424603 -1244.210508 -1176.871488 -1109.715372 -1043.928665 -979.924558 -917.873771 -857.873790 -800.006073 -744.349570 -690.979454 -639.961990 -591.349649 -545.177797 -501.463143 -460.203648 -421.379525 -384.954906 -350.879864 -319.092548 -289.521261 -262.086397 -236.702174 -213.278174 -191.720677 -171.933824 -153.820621 -137.283819 -122.226674 -108.553618 -96.170841 -84.986795 -74.912635 -65.862584 -57.754237 -50.508807 -44.051305 -38.310669 -33.219833 -28.715756 -24.739394 -21.235641 -18.153229 -15.444615 -13.065855 -10.976535 -9.139849 -7.523147 -6.099790 -4.855282 -3.790750 -2.892647 -2.321137 -2.213894 -2.213894 -2.213894 12572.185544 12572.185544 12572.185544 12575.759987 12620.662566 12710.949523 12711.145170 12665.929736 12644.359792 12579.609475 12374.104278 12026.219867 11414.046424 10757.824813 10288.699102 9933.339010 9600.355918 8980.097492 8130.300433 7480.819716 7138.400260 6826.325118 6316.443815 5415.459829 4394.762886 3806.260875 3190.494404 1921.876868 802.233474 478.286001 1388.178633 1798.623364 983.495169 595.128434 -235.646203 -203.892366 -1.546387 229.461669 421.847553 -159.313176 -708.821273 -542.798563 -262.449468 80.490238 -106.823567 -989.910781 -1022.313272 -735.592630 -1102.895501 -1942.005922 -1898.976228 -1710.546501 -1589.469524 -1492.423157 -1411.807176 -1339.687841 -1263.474752 -1185.099411 -1112.964670 -1045.055575 -980.193267 -917.795114 -857.650866 -799.719362 -744.031559 -690.644176 -639.616522 -590.998479 -544.824399 -501.110493 -459.854372 -421.035917 -384.618931 -350.553168 -318.776475 -289.216879 -261.794527 -236.423427 -213.012972 -191.469284 -171.696365 -153.597101 -137.074139 -122.030643 -108.370965 -96.001227 -84.829822 -74.767853 -65.729504 -57.632337 -50.397540 -43.950107 -38.218966 -33.137048 -28.641311 -24.672710 -21.176122 -18.100221 -15.397287 -13.022887 -10.935318 -9.094465 -7.459459 -5.985500 -4.628865 -3.489364 -2.669180 -2.164741 -2.075084 -2.075084 -2.075084 12807.346643 12807.346643 12807.346643 12819.130229 12935.579761 13132.741878 13229.595311 12963.534706 13483.622937 13911.190258 13515.058100 13335.645658 12002.857476 10947.225624 10722.438181 10442.963634 11005.291126 10058.404428 7917.865202 7439.867480 7654.637828 7444.323761 6848.324721 5176.813892 3225.260105 3810.788831 4069.866773 213.531624 -557.770071 -1922.316467 3654.104185 4123.555717 -1206.231513 86.036046 -1972.144008 -961.468198 50.003143 706.738274 1227.606075 -140.272346 -1288.658200 -753.323877 -94.430031 760.559353 376.361944 -1460.441707 -1340.624549 -301.707477 -526.736666 -2300.707069 -2467.148606 -1988.591405 -1736.680312 -1573.147532 -1462.256856 -1383.359107 -1299.399035 -1199.455980 -1118.116701 -1046.876514 -980.707681 -917.788303 -857.430251 -799.406372 -743.675005 -690.264763 -639.224218 -590.599173 -544.422371 -500.709269 -459.456996 -420.645021 -384.236760 -350.181592 -318.417018 -288.870750 -261.462657 -236.106503 -212.711472 -191.183504 -171.426443 -153.343041 -136.835824 -121.807856 -108.163397 -95.808490 -84.651462 -74.603359 -65.578317 -57.493862 -50.271153 -43.835167 -38.114819 -33.043036 -28.556773 -24.596979 -21.108504 -18.039926 -15.343251 -12.973304 -10.886425 -9.037361 -7.371409 -5.803529 -4.143021 -2.935117 -2.319701 -1.951513 -1.884182 -1.884182 -1.884182 -2.705204 -2.174742 -1.895672 -1.857992 -1.857992 -1.857992 -2.192642 -1.894263 -1.707212 -1.681656 -1.681656 -1.681656 -1.610985 -1.510157 -1.427269 -1.415554 -1.415554 -1.415554 -1.251006 -1.213762 -1.181639 -1.176893 -1.176893 -1.176893 -0.995673 -0.982991 -0.972404 -0.970896 -0.970896 -0.970896 -0.801746 -0.798684 -0.796773 -0.796590 -0.796590 -0.796590 -0.648599 -0.649181 -0.650515 -0.650821 -0.650821 -0.650821 -0.525224 -0.527023 -0.529369 -0.529818 -0.529818 -0.529818 -0.424924 -0.426973 -0.429446 -0.429902 -0.429902 -0.429902 -0.343121 -0.345055 -0.347327 -0.347741 -0.347741 -0.347741 -0.276395 -0.278095 -0.280069 -0.280426 -0.280426 -0.280426 -0.222046 -0.223491 -0.225161 -0.225462 -0.225462 -0.225462 -0.177877 -0.179085 -0.180478 -0.180729 -0.180729 -0.180729 -0.142080 -0.143079 -0.144230 -0.144437 -0.144437 -0.144437 -0.113151 -0.113972 -0.114917 -0.115087 -0.115087 -0.115087 -0.089844 -0.090515 -0.091288 -0.091426 -0.091426 -0.091426 -0.071123 -0.071670 -0.072299 -0.072412 -0.072412 -0.072412 -0.056134 -0.056577 -0.057087 -0.057179 -0.057179 -0.057179 -0.044170 -0.044528 -0.044940 -0.045015 -0.045015 -0.045015 -0.034650 -0.034939 -0.035271 -0.035331 -0.035331 -0.035331 -0.027100 -0.027331 -0.027598 -0.027646 -0.027646 -0.027646 -0.021130 -0.021316 -0.021529 -0.021567 -0.021567 -0.021567 -0.016425 -0.016573 -0.016743 -0.016774 -0.016774 -0.016774 -0.012729 -0.012847 -0.012982 -0.013006 -0.013006 -0.013006 -0.009835 -0.009928 -0.010035 -0.010054 -0.010054 -0.010054 -0.007575 -0.007648 -0.007733 -0.007748 -0.007748 -0.007748 -0.005817 -0.005874 -0.005941 -0.005953 -0.005953 -0.005953 -0.004453 -0.004498 -0.004550 -0.004560 -0.004560 -0.004560 -0.003398 -0.003434 -0.003474 -0.003482 -0.003482 -0.003482 -0.002585 -0.002613 -0.002645 -0.002650 -0.002650 -0.002650 -0.001961 -0.001982 -0.002007 -0.002011 -0.002011 -0.002011 -0.001483 -0.001499 -0.001518 -0.001522 -0.001522 -0.001522 -0.001118 -0.001130 -0.001145 -0.001148 -0.001148 -0.001148 -0.000840 -0.000850 -0.000861 -0.000863 -0.000863 -0.000863 -0.000629 -0.000637 -0.000645 -0.000647 -0.000647 -0.000647 -0.000470 -0.000476 -0.000482 -0.000484 -0.000484 -0.000484 -0.000350 -0.000354 -0.000359 -0.000360 -0.000360 -0.000360 -0.000260 -0.000263 -0.000267 -0.000268 -0.000268 -0.000268 -0.000192 -0.000195 -0.000198 -0.000198 -0.000198 -0.000198 -0.000142 -0.000144 -0.000146 -0.000146 -0.000146 -0.000146 -0.000104 -0.000106 -0.000107 -0.000108 -0.000108 -0.000108 -0.000076 -0.000077 -0.000079 -0.000079 -0.000079 -0.000079 -0.000056 -0.000057 -0.000058 -0.000058 -0.000058 -0.000058 -0.000041 -0.000041 -0.000042 -0.000042 -0.000042 -0.000042 -0.000030 -0.000030 -0.000031 -0.000031 -0.000031 -0.000031 -0.000021 -0.000022 -0.000022 -0.000022 -0.000022 -0.000022 -0.000015 -0.000016 -0.000016 -0.000016 -0.000016 -0.000016 -0.000011 -0.000011 -0.000011 -0.000012 -0.000012 -0.000012 -0.000008 -0.000008 -0.000008 -0.000008 -0.000008 -0.000008 -0.000006 -0.000006 -0.000006 -0.000006 -0.000006 -0.000006 -0.000004 -0.000004 -0.000004 -0.000004 -0.000004 -0.000004 -0.000003 -0.000003 -0.000003 -0.000003 -0.000003 -0.000003 -0.000002 -0.000002 -0.000002 -0.000002 -0.000002 -0.000002 -0.000001 -0.000001 -0.000002 -0.000002 -0.000002 -0.000002 -0.000001 -0.000001 -0.000001 -0.000001 -0.000001 -0.000001 -0.000001 -0.000001 -0.000001 -0.000001 -0.000001 -0.000001 -0.000001 -0.000001 -0.000001 -0.000001 -0.000001 -0.000001 -0.000000 -0.000000 -0.000000 -0.000000 -0.000000 -0.000000 -0.000000 -0.000000 -0.000000 -0.000000 -0.000000 -0.000000 -0.000000 -0.000000 -0.000000 -0.000000 -0.000000 -0.000000 -0.000000 -0.000000 -0.000000 -0.000000 -0.000000 -0.000000 -0.000000 -0.000000 -0.000000 -0.000000 -0.000000 -0.000000 -0.000000 -0.000000 -0.000000 -0.000000 -0.000000 -0.000000 -0.000000 -0.000000 -0.000000 -0.000000 -0.000000 -0.000000 -0.000000 -0.000000 -0.000000 -0.000000 -0.000000 -0.000000 -0.000000 -0.000000 -0.000000 -0.000000 -0.000000 -0.000000 -0.000000 -0.000000 -0.000000 -0.000000 -0.000000 -0.000000 -0.000000 -0.000000 -0.000000 -0.000000 -0.000000 -0.000000 -0.000000 -0.000000 -0.000000 -0.000000 -0.000000 -0.000000 -0.000000 -0.000000 -0.000000 -0.000000 -0.000000 -0.000000 -0.000000 -0.000000 -0.000000 -0.000000 -0.000000 -0.000000 -0.000000 -0.000000 -0.000000 -0.000000 -0.000000 -0.000000 -0.000000 -0.000000 -0.000000 -0.000000 -0.000000 -0.000000 -0.000000 -0.000000 -0.000000 -0.000000 -0.000000 -0.000000 -0.000000 -0.000000 -0.000000 0.000000 0.000000 0.000000 -0.000000 -0.000000 -0.000000 0.000000 0.000000 0.000000 -0.000000 -0.000000 -0.000000 0.000000 0.000000 0.000000 -0.000000 -0.000000 -0.000000 0.000000 0.000000 0.000000 -0.000000 -0.000000 -0.000000 0.000000 0.000000 0.000000 -0.000000 -0.000000 -0.000000 0.000000 0.000000 0.000000 -0.000000 -0.000000 -0.000000 0.000000 0.000000 0.000000 -0.000000 -0.000000 -0.000000 0.000000 0.000000 0.000000 -0.000000 -0.000000 -0.000000 0.000000 0.000000 0.000000 -0.000000 -0.000000 -0.000000 0.000000 0.000000 0.000000 -0.000000 -0.000000 -0.000000 0.000000 0.000000 0.000000 -0.000000 -0.000000 -0.000000 0.000000 0.000000 0.000000 -0.000000 -0.000000 -0.000000 0.000000 0.000000 0.000000 -0.000000 -0.000000 -0.000000 0.000000 0.000000 0.000000 -0.000000 -0.000000 -0.000000 0.000000 0.000000 0.000000 -0.000000 -0.000000 -0.000000 0.000000 0.000000 0.000000 -0.000000 -0.000000 -0.000000 0.000000 0.000000 0.000000 -0.000000 -0.000000 -0.000000 0.000000 0.000000 0.000000 -0.000000 -0.000000 -0.000000 0.000000 0.000000 0.000000 -0.000000 -0.000000 -0.000000 0.000000 0.000000 0.000000 -0.000000 -0.000000 -0.000000 0.000000 0.000000 0.000000 -0.000000 -0.000000 -0.000000 0.000000 0.000000 0.000000 -0.000000 -0.000000 -0.000000 0.000000 0.000000 0.000000 -0.000000 -0.000000 -0.000000 0.000000 0.000000 0.000000 -0.000000 -0.000000 -0.000000 0.000000 0.000000 0.000000 -0.000000 -0.000000 -0.000000 0.000000 0.000000 0.000000 -0.000000 -0.000000 -0.000000 0.000000 0.000000 0.000000 -0.000000 -0.000000 -0.000000 0.000000 0.000000 0.000000 -0.000000 -0.000000 -0.000000 0.000000 0.000000 0.000000 -0.000000 -0.000000 -0.000000 0.000000 0.000000 0.000000 -0.000000 -0.000000 -0.000000 0.000000 0.000000 0.000000 -0.000000 -0.000000 -0.000000 0.000000 0.000000 0.000000 -0.000000 -0.000000 -0.000000 0.000000 0.000000 0.000000 -0.000000 -0.000000 -0.000000 0.000000 0.000000 0.000000 -0.000000 -0.000000 -0.000000 0.000000 0.000000 0.000000 -0.000000 -0.000000 -0.000000 0.000000 0.000000 0.000000 -0.000000 -0.000000 -0.000000 0.000000 0.000000 0.000000 -0.000000 -0.000000 -0.000000 0.000000 0.000000 0.000000 -0.000000 -0.000000 -0.000000 0.000000 0.000000 0.000000 -0.000000 -0.000000 -0.000000 0.000000 0.000000 0.000000 -0.000000 -0.000000 -0.000000 0.000000 0.000000 0.000000 -0.000000 -0.000000 -0.000000 0.000000 0.000000 0.000000 -0.000000 -0.000000 -0.000000 0.000000 0.000000 0.000000 -0.000000 -0.000000 -0.000000 0.000000 0.000000 0.000000 -0.000000 -0.000000 -0.000000 0.000000 0.000000 0.000000 -0.000000 -0.000000 -0.000000 0.000000 0.000000 0.000000 -0.000000 -0.000000 -0.000000 0.000000 0.000000 0.000000 -0.000000 -0.000000 -0.000000 0.000000 0.000000 0.000000 -0.000000 -0.000000 -0.000000 0.000000 0.000000 0.000000 -0.000000 -0.000000 -0.000000 0.000000 0.000000 0.000000 -0.000000 -0.000000 -0.000000 0.000000 0.000000 0.000000 -0.000000 -0.000000 -0.000000 0.000000 0.000000 0.000000 -0.000000 -0.000000 -0.000000 0.000000 0.000000 0.000000 -0.000000 -0.000000 -0.000000 0.000000 0.000000 0.000000 -0.000000 -0.000000 -0.000000 0.000000 0.000000 0.000000 -0.000000 -0.000000 -0.000000 0.000000 0.000000 0.000000 -0.000000 -0.000000 -0.000000 0.000000 0.000000 0.000000 -0.000000 -0.000000 -0.000000 0.000000 0.000000 0.000000 -0.000000 -0.000000 -0.000000 0.000000 0.000000 0.000000 -0.000000 -0.000000 -0.000000 0.000000 0.000000 0.000000 -0.000000 -0.000000 -0.000000 0.000000 0.000000 0.000000 -0.000000 -0.000000 -0.000000 0.000000 0.000000 0.000000 -0.000000 -0.000000 -0.000000 0.000000 0.000000 0.000000 -0.000000 -0.000000 -0.000000 0.000000 0.000000 0.000000 -0.000000 -0.000000 -0.000000 0.000000 0.000000 0.000000 -0.000000 -0.000000 -0.000000 0.000000 0.000000 0.000000 -0.000000 -0.000000 -0.000000 0.000000 0.000000 0.000000 -0.000000 -0.000000 -0.000000 0.000000 0.000000 0.000000 0.000000 -0.000000 0.000000 0.000000 0.000000 0.000000 0.000000 0.000000 0.000000 0.000000 0.000000 0.000000 0.000000 0.000000 0.000000 0.000000 0.000000 0.000000 0.000000 0.000000 0.000000 0.000000 0.000000 0.000000 0.000000 0.000000 0.000000 0.000000 0.000000 0.000000 0.000000 0.000000 0.000000 0.000000 0.000000 0.000000 0.000000 0.000000 0.000000 0.000000 0.000000 0.000000 0.000000 0.000000 0.000000 0.000000 0.000000 0.000000 0.000001 0.000001 0.000001 0.000001 0.000001 0.000001 0.000002 0.000002 0.000002 0.000002 0.000002 0.000002 0.000004 0.000005 0.000005 0.000005 0.000005 0.000005 0.000010 0.000011 0.000012 0.000012 0.000012 0.000012 0.000023 0.000025 0.000027 0.000028 0.000028 0.000028 0.000051 0.000056 0.000061 0.000062 0.000062 0.000062 0.000113 0.000122 0.000133 0.000135 0.000135 0.000135 0.000242 0.000261 0.000284 0.000288 0.000288 0.000288 0.000509 0.000546 0.000590 0.000599 0.000599 0.000599 0.001043 0.001113 0.001198 0.001214 0.001214 0.001214 0.002085 0.002216 0.002374 0.002403 0.002403 0.002403 0.004067 0.004305 0.004588 0.004640 0.004640 0.004640 0.007738 0.008156 0.008650 0.008741 0.008741 0.008741 0.014357 0.015068 0.015906 0.016059 0.016059 0.016059 0.025968 0.027140 0.028517 0.028768 0.028768 0.028768 0.045769 0.047641 0.049830 0.050227 0.050227 0.050227 0.078582 0.081469 0.084833 0.085442 0.085442 0.085442 0.131368 0.135664 0.140650 0.141551 0.141551 0.141551 0.213733 0.219884 0.226992 0.228273 0.228273 0.228273 0.338235 0.346677 0.356394 0.358141 0.358141 0.358141 0.520287 0.531344 0.544016 0.546289 0.546289 0.546289 0.777326 0.791049 0.806701 0.809500 0.809500 0.809500 1.126906 1.142861 1.160963 1.164190 1.164190 1.164190 1.583398 1.600436 1.619640 1.623051 1.623051 1.623051 2.153155 2.169200 2.187107 2.190269 2.190269 2.190269 2.828301 2.840226 2.853262 2.855535 2.855535 2.855535 3.579791 3.583477 3.586969 3.587520 3.587520 3.587520 4.350932 4.341585 4.330135 4.328006 4.328006 4.328006 5.053111 5.025898 4.994104 4.988341 4.988341 4.988341 5.565801 5.516781 5.460297 5.450136 5.450136 5.450136 5.742799 5.670065 5.586874 5.571971 5.571971 5.571971 5.425993 5.330817 5.222497 5.203149 5.203149 5.203149 4.466598 4.354296 4.226974 4.204281 4.204281 4.204281 2.751972 2.632191 2.496827 2.472745 2.472745 2.472745 0.234122 0.120292 -0.007962 -0.030739 -0.030739 -0.030739 -3.045594 -3.137744 -3.241225 -3.259566 -3.259566 -3.259566 -6.941696 -6.996446 -7.057572 -7.068367 -7.068367 -7.068367 -11.205088 -11.209502 -11.213868 -11.214577 -11.214577 -11.214577 -15.501797 -15.448429 -15.387801 -15.376977 -15.376977 -15.376977 -19.449334 -19.338215 -19.212731 -19.190409 -19.190409 -19.190409 -22.665903 -22.505291 -22.324266 -22.292101 -22.292101 -22.292101 -24.824182 -24.629778 -24.410800 -24.371907 -24.371907 -24.371907 -25.699390 -25.492122 -25.258558 -25.217065 -25.217065 -25.217065 -25.201671 -25.004605 -24.782100 -24.742526 -24.742526 -24.742526 -23.385480 -23.220877 -23.033926 -23.000561 -23.000561 -23.000561 -20.432913 -20.321024 -20.191196 -20.167748 -20.167748 -20.167748 -16.612316 -16.574668 -16.522755 -16.512581 -16.512581 -16.512581 -12.215344 -12.289173 -12.344431 -12.351606 -12.351606 -12.351606 -7.467048 -7.756946 -7.975668 -8.005559 -8.005559 -8.005559 -2.368843 -3.269159 -3.692695 -3.748605 -3.748605 -3.748605 21873.811855 21873.811855 21873.811855 21802.887992 21928.684028 20920.715169 19067.632124 21071.555147 21361.510072 21550.193508 21535.479424 22847.282097 20735.146228 22017.535168 19559.991156 19285.143993 21907.380308 19883.610283 19404.330558 18733.515588 19689.301395 18451.927841 17744.367778 18844.630606 16475.249915 18682.792699 20214.675735 16618.075021 18650.027682 20855.238374 13856.456173 16503.996854 21793.687159 14286.355996 11634.806047 11863.626378 13603.224515 14138.120709 4567.251371 9367.856925 10789.196371 17509.043497 8296.218125 3833.024739 4872.781225 16813.619791 1974.775407 -10417.253293 -6403.633407 -2130.254319 2412.355778 2848.731259 -3445.228373 -3762.292117 -2007.732891 -1303.040260 -891.421829 -614.184452 -407.168376 -244.997642 -117.431641 -19.897443 50.699178 97.591531 124.523713 135.580772 134.849648 126.098271 112.551088 96.776430 80.669982 65.507667 52.040706 40.609616 31.259324 23.843139 18.108521 13.761904 10.513138 8.102240 6.312236 4.972110 3.953513 3.164196 2.540345 2.039233 1.632975 1.303693 1.040106 0.835354 0.685790 0.590452 0.550923 0.571305 0.658047 0.819386 1.064134 1.399581 1.828232 2.342967 2.919736 3.505527 3.995316 4.182315 3.554226 2.042199 1.003616 0.500871 0.407690 0.407690 0.407690 21700.943891 21700.943891 21700.943891 21635.613040 21452.930139 21156.103318 20915.275024 21687.533469 20908.221958 21103.520757 20943.671236 21220.215050 19750.644149 19837.462357 18519.972114 18588.668421 20018.100304 18587.354191 18624.955897 18535.201066 18006.637029 16753.897071 15335.308653 15620.114395 15161.488972 15854.814319 15838.344397 14456.808624 15064.203383 15052.530612 13320.106357 13974.727192 14772.619666 12042.653130 11530.296577 11386.781486 11940.944843 11878.385241 8236.451702 8431.632184 9671.552571 9403.750540 5102.589881 4654.628203 5450.661756 7391.237179 2258.795209 -1640.637492 -1717.478934 -493.383916 959.523749 1067.533170 -895.392215 -1368.681188 -1103.894114 -835.451257 -636.475990 -472.582226 -329.060829 -202.927484 -95.746904 -9.538881 54.987112 98.828312 124.402802 135.009863 134.276444 125.708512 112.388706 96.815511 80.856752 65.783870 52.355488 40.924404 31.548562 24.092771 18.313455 13.923271 10.635800 8.192807 6.377644 5.018732 3.986700 3.188136 2.558122 2.053005 1.644186 1.313287 1.048714 0.843433 0.693728 0.598622 0.559704 0.581064 0.669103 0.831958 1.078331 1.415519 1.846519 2.366055 2.955353 3.575103 4.155544 4.583874 4.737326 4.621619 4.480268 4.424947 4.411555 4.411555 4.411555 21635.722633 21635.722633 21635.722633 21623.299138 21531.222433 21477.682719 21493.100816 21633.539677 21451.629786 21487.518149 21255.102688 20963.507126 20462.287832 20045.858810 19546.484696 19171.269963 18852.158151 18326.848588 17813.654987 17304.955067 16749.412089 16126.925932 15516.760398 15002.800910 14545.682214 14229.943524 13966.357813 13628.897015 13323.357542 13020.508903 12569.303832 12202.599167 11845.207723 11271.075401 10586.429083 9958.861964 9354.552657 8675.010401 7792.751490 7098.208093 6690.741031 6210.517952 5319.810448 4495.632779 4028.922335 3637.425059 2685.669183 1537.272671 929.682347 817.856865 844.978242 659.088852 205.361634 -179.528629 -365.148243 -421.504628 -404.486867 -343.035054 -257.707560 -164.777334 -76.423039 -0.668606 58.291414 99.390780 123.812337 134.115436 133.489213 125.188214 112.158620 96.832420 81.052345 66.088016 52.708085 41.280109 31.877261 24.377693 18.548225 14.108747 10.777229 8.297536 6.453480 5.072904 4.025316 3.215999 2.578793 2.068984 1.657159 1.324364 1.058637 0.852742 0.702874 0.608036 0.569814 0.592283 0.681777 0.846304 1.094405 1.433309 1.866373 2.389937 2.989998 3.639475 4.297513 4.914133 5.445987 5.881505 6.245489 6.456126 6.480909 6.480909 6.480909 21627.313309 21627.313309 21627.313309 21624.659101 21598.640471 21566.755934 21576.817488 21582.724911 21561.710566 21475.865227 21278.133596 20963.807410 20546.127184 20101.010292 19637.605653 19209.326479 18792.823378 18291.586811 17756.307270 17218.416687 16660.602371 16076.239458 15493.079594 14955.703221 14480.791761 14106.708349 13794.230926 13471.784563 13148.835824 12810.880032 12410.254950 12006.003335 11575.471180 11034.502690 10398.343411 9731.359624 9044.526248 8324.042369 7557.410342 6881.901093 6356.408334 5821.352564 5112.745413 4406.310331 3857.000220 3353.636978 2636.316033 1825.007468 1258.837303 1001.973062 876.338876 661.247651 304.401947 -39.723244 -260.696846 -358.660407 -368.660822 -322.948651 -246.656600 -158.902455 -73.488634 0.633712 58.729135 99.409291 123.662808 133.931751 133.335322 125.087663 112.112986 96.832654 81.085555 66.141301 52.770487 41.343384 31.935927 24.428674 18.590322 14.142069 10.802684 8.316417 6.467173 5.082698 4.032303 3.221042 2.582532 2.071871 1.659499 1.326360 1.060423 0.854417 0.704520 0.609729 0.571632 0.594298 0.684050 0.848871 1.097268 1.436451 1.869821 2.393959 2.995591 3.649494 4.318989 4.961528 5.540999 6.040501 6.465229 6.713094 6.753270 6.753270 6.753270 21627.313309 21627.313309 21627.313309 21624.659101 21598.640471 21566.755934 21576.817488 21582.724911 21561.710566 21475.865227 21278.133596 20963.807410 20546.127184 20101.010292 19637.605653 19209.326479 18792.823378 18291.586811 17756.307270 17218.416687 16660.602371 16076.239458 15493.079594 14955.703221 14480.791761 14106.708349 13794.230926 13471.784563 13148.835824 12810.880032 12410.254950 12006.003335 11575.471180 11034.502690 10398.343411 9731.359624 9044.526248 8324.042369 7557.410342 6881.901093 6356.408334 5821.352564 5112.745413 4406.310331 3857.000220 3353.636978 2636.316033 1825.007468 1258.837303 1001.973062 876.338876 661.247651 304.401947 -39.723244 -260.696846 -358.660407 -368.660822 -322.948651 -246.656600 -158.902455 -73.488634 0.633712 58.729135 99.409291 123.662808 133.931751 133.335322 125.087663 112.112986 96.832654 81.085555 66.141301 52.770487 41.343384 31.935927 24.428674 18.590322 14.142069 10.802684 8.316417 6.467173 5.082698 4.032303 3.221042 2.582532 2.071871 1.659499 1.326360 1.060423 0.854417 0.704520 0.609729 0.571632 0.594298 0.684050 0.848871 1.097268 1.436451 1.869821 2.393959 2.995591 3.649494 4.318989 4.961528 5.540999 6.040501 6.465229 6.713094 6.753270 6.753270 6.753270 21627.313309 21627.313309 21627.313309 21624.659101 21598.640471 21566.755934 21576.817488 21582.724911 21561.710566 21475.865227 21278.133596 20963.807410 20546.127184 20101.010292 19637.605653 19209.326479 18792.823378 18291.586811 17756.307270 17218.416687 16660.602371 16076.239458 15493.079594 14955.703221 14480.791761 14106.708349 13794.230926 13471.784563 13148.835824 12810.880032 12410.254950 12006.003335 11575.471180 11034.502690 10398.343411 9731.359624 9044.526248 8324.042369 7557.410342 6881.901093 6356.408334 5821.352564 5112.745413 4406.310331 3857.000220 3353.636978 2636.316033 1825.007468 1258.837303 1001.973062 876.338876 661.247651 304.401947 -39.723244 -260.696846 -358.660407 -368.660822 -322.948651 -246.656600 -158.902455 -73.488634 0.633712 58.729135 99.409291 123.662808 133.931751 133.335322 125.087663 112.112986 96.832654 81.085555 66.141301 52.770487 41.343384 31.935927 24.428674 18.590322 14.142069 10.802684 8.316417 6.467173 5.082698 4.032303 3.221042 2.582532 2.071871 1.659499 1.326360 1.060423 0.854417 0.704520 0.609729 0.571632 0.594298 0.684050 0.848871 1.097268 1.436451 1.869821 2.393959 2.995591 3.649494 4.318989 4.961528 5.540999 6.040501 6.465229 6.713094 6.753270 6.753270 6.753270 12844.184704 12844.184704 12844.184704 12858.711965 12963.634010 13249.994855 13449.395240 13149.151988 13760.553063 14249.300850 13742.419538 13642.607325 12179.889920 11079.271942 10861.816121 10408.797205 11280.626267 10225.015150 7836.513897 7461.256749 7767.275809 7279.690039 6886.572417 5292.304296 2830.318260 3742.325924 4418.422606 -352.139747 -910.412311 -2776.661904 4431.133569 4852.979255 -2570.722366 -461.788003 -2356.355451 -1100.121273 52.449831 742.009937 1270.120621 -166.712894 -1338.477787 -771.761538 -81.785281 805.536268 402.422096 -1492.367350 -1363.458155 -237.595468 -345.477585 -2194.275787 -2482.824080 -2009.711238 -1747.379656 -1578.993752 -1466.021982 -1387.475296 13122.129514 13122.129514 13122.129514 13145.657929 13200.918568 14569.902221 11052.106412 14592.994257 11500.500287 11190.133580 10682.215911 13145.958695 14258.614244 12765.262729 11797.775265 14735.845212 13767.175626 10659.048320 14549.090119 15661.752654 12629.944607 13991.598403 14224.849066 12305.638211 15020.247307 14005.310238 13898.494468 13224.742684 11906.372617 12553.546602 14000.506954 13090.431199 14242.524450 17936.614968 15922.776792 14068.269224 12501.824753 15163.405634 14615.985632 13176.724706 14087.240093 13499.159569 13700.193327 11657.919768 16151.569897 13835.132750 17172.099385 13830.605837 14969.054605 16950.162969 15470.315211 15886.532414 14226.002344 4160.068533 -303.502455 -2326.776887 13553.077795 13553.077795 13553.077795 13566.272989 13446.770774 15035.884225 10770.479129 11188.838034 13067.931529 12387.281286 13099.197727 12781.703033 12495.797742 11228.859188 13940.559035 12485.487438 13237.113009 12906.683974 13428.440356 13253.886501 13120.588023 12519.932032 13589.494581 12774.733372 11620.993832 15963.571463 10867.583316 14300.059593 13988.123022 13230.651148 12195.689312 12951.082131 16785.326148 13871.915958 14598.414822 14464.218364 14156.514692 12932.395439 15303.468741 15950.049020 15020.152460 17748.421659 13779.162186 16383.503681 18794.970126 15332.445347 13451.388003 13951.346614 16007.538421 17660.629513 18564.881010 16725.048716 7302.060744 11444.157137 1570.755802 140.641369 13903.161731 13903.161731 13903.161731 13946.207209 14286.671360 15576.306897 12446.465341 13974.436278 11988.935195 10410.824760 10397.692179 10267.120891 10577.094844 16584.740953 11928.933510 13089.200998 16182.601100 16130.825993 11318.112537 16009.288278 15292.775225 13787.694981 13378.398209 14512.437139 14884.996402 14996.874653 14390.404866 11993.357232 17697.841269 17444.375231 13565.056427 12007.029536 17981.930758 16923.360214 16840.703371 17579.689663 17882.272238 15846.666717 15302.276306 18142.825382 15518.089548 16627.947124 16732.321731 15798.103327 18162.804999 18226.676890 16683.042699 15567.597052 18077.123258 17278.234625 13293.240396 17140.750325 2168.302536 15872