<VTKFile type="PolyData">
<PolyData>
<Piece NumberOfPoints="8632" NumberOfVerts="8632" NumberOfLines="0" NumberOfStrips="0" NumberOfPolys="0">
<PointData>
<DataArray type="Float64" Name="Pressure" format="ascii">
 11077.708834 11077.708834 11077.708834 11078.521654 11089.003156 11122.830666 11150.441719 11119.568970 10970.948020 10703.639206 10357.505595 9964.457760 9540.326200 9086.623376 8610.317367 8138.883017 7690.377223 7251.612341 6796.015607 6335.703003 5887.274600 5402.191249 4804.587026 4084.200920 3322.868165 2600.396060 1938.521893 1350.597776 889.068585 609.655915 499.089494 487.363973 476.442636 399.565523 246.652726 74.855633 -36.344253 -63.602324 -53.267872 -79.143784 -170.073562 -258.539237 -288.196497 -288.918759 -329.732590 -456.706118 -623.761673 -758.708200 -884.901698 -1055.794053 -1241.063669 -1357.567880 -1393.156243 -1377.979679 -1334.424902 -1274.816591 -1206.053178 -1132.933752 -1059.133731 -986.810689 -916.985509 -850.108015 -786.356633 -725.782504 -668.376210 -614.099190 -562.898629 -514.714238 -469.480874 -427.129067 -387.584585 -350.767722 -316.592688 -284.967315 -255.793122 -228.965757 -204.375736 -181.909409 -161.450074 -142.879150 -126.077358 -110.925848 -97.307244 -85.106582 -74.212125 -64.516050 -55.915010 -48.310575 -41.609553 -35.724215 -30.572419 -26.077645 -22.168970 -18.780959 -15.853517 -13.331687 -11.165415 -9.309280 -7.722221 -6.367247 -5.211195 -4.224588 -3.381773 -2.661662 -2.049348 -1.535867 -1.105486 -0.833594 -0.782682 -0.782682 -0.782682 11077.708834 11077.708834 11077.708834 11078.521654 11089.003156 11122.830666 11150.441719 11119.568970 10970.948020 10703.639206 10357.505595 9964.457760 9540.326200 9086.623376 8610.317367 8138.883017 7690.377223 7251.612341 6796.015607 6335.703003 5887.274600 5402.191249 4804.587026 4084.200920 3322.868165 2600.396060 1938.521893 1350.597776 889.068585 609.655915 499.089494 487.363973 476.442636 399.565523 246.652726 74.855633 -36.344253 -63.602324 -53.267872 -79.143784 -170.073562 -258.539237 -288.196497 -288.918759 -329.732590 -456.706118 -623.761673 -758.708200 -884.901698 -1055.794053 -1241.063669 -1357.567880 -1393.156243 -1377.979679 -1334.424902 -1274.816591 -1206.053178 -1132.933752 -1059.133731 -986.810689 -916.985509 -850.108015 -786.356633 -725.782504 -668.376210 -614.099190 -562.898629 -514.714238 -469.480874 -427.129067 -387.584585 -350.767722 -316.592688 -284.967315 -255.793122 -228.965757 -204.375736 -181.909409 -161.450074 -142.879150 -126.077358 -110.925848 -97.307244 -85.106582 -74.212125 -64.516050 -55.915010 -48.310575 -41.609553 -35.724215 -30.572419 -26.077645 -22.168970 -18.780959 -15.853517 -13.331687 -11.165415 -9.309280 -7.722221 -6.367247 -5.211195 -4.224588 -3.381773 -2.661662 -2.049348 -1.535867 -1.105486 -0.833594 -0.782682 -0.782682 -0.782682 11077.708834 11077.708834 11077.708834 11078.521654 11089.003156 11122.830666 11150.441719 11119.568970 10970.948020 10703.639206 10357.505595 9964.457760 9540.326200 9086.623376 8610.317367 8138.883017 7690.377223 7251.612341 6796.015607 6335.703003 5887.274600 5402.191249 4804.587026 4084.200920 3322.868165 2600.396060 1938.521893 1350.597776 889.068585 609.655915 499.089494 487.363973 476.442636 399.565523 246.652726 74.855633 -36.344253 -63.602324 -53.267872 -79.143784 -170.073562 -258.539237 -288.196497 -288.918759 -329.732590 -456.706118 -623.761673 -758.708200 -884.901698 -1055.794053 -1241.063669 -1357.567880 -1393.156243 -1377.979679 -1334.424902 -1274.816591 -1206.053178 -1132.933752 -1059.133731 -986.810689 -916.985509 -850.108015 -786.356633 -725.782504 -668.376210 -614.099190 -562.898629 -514.714238 -469.480874 -427.129067 -387.584585 -350.767722 -316.592688 -284.967315 -255.793122 -228.965757 -204.375736 -181.909409 -161.450074 -142.879150 -126.077358 -110.925848 -97.307244 -85.106582 -74.212125 -64.516050 -55.915010 -48.310575 -41.609553 -35.724215 -30.572419 -26.077645 -22.168970 -18.780959 -15.853517 -13.331687 -11.165415 -9.309280 -7.722221 -6.367247 -5.211195 -4.224588 -3.381773 -2.661662 -2.049348 -1.535867 -1.105486 -0.833594 -0.782682 -0.782682 -0.782682 11089.861473 11089.861473 11089.861473 11090.156718 11096.606106 11125.948612 11162.003799 11145.252659 10994.337991 10719.418094 10369.235426 9972.074807 9550.188172 9099.526609 8613.626062 8138.319487 7699.608808 7283.099671 6834.004503 6373.996271 5955.749093 5518.837503 4945.440290 4202.023087 3405.729095 2669.941559 1989.157912 1361.259890 859.920313 589.878438 518.739963 560.931722 574.358966 492.606331 298.432378 78.323583 -49.703827 -65.839812 -33.714197 -49.713839 -169.880297 -278.393287 -296.796940 -273.833546 -297.587702 -433.538877 -639.133823 -760.411121 -862.820395 -1038.788458 -1264.067801 -1383.318915 -1410.470481 -1387.801428 -1340.193739 -1278.509671 -1208.252975 -1134.007909 -1059.568422 -986.961224 -917.017860 -850.092732 -786.322630 -725.741519 -668.332995 -614.055671 -562.855593 -514.672019 -469.439636 -427.088914 -387.545606 -350.730005 -316.556324 -284.932388 -255.759713 -228.933934 -204.345554 -181.880908 -161.423276 -142.854062 -126.053970 -110.904136 -97.287171 -85.088100 -74.195177 -64.500571 -55.900929 -48.297815 -41.598037 -35.713863 -30.563150 -26.069380 -22.161630 -18.774468 -15.847802 -13.326677 -11.161043 -9.305478 -7.718917 -6.364349 -5.208555 -4.221909 -3.378403 -2.656295 -2.040775 -1.525376 -1.097497 -0.827789 -0.777426 -0.777426 -0.777426 11229.166244 11229.166244 11229.166244 11226.769431 11185.933714 11120.072487 11242.150910 11406.964073 11209.405808 10904.641875 10573.615416 10131.887980 9770.065516 9396.845897 8733.171961 8112.399231 7735.500165 7622.935878 7226.620367 6675.211181 6607.042924 6869.377065 6726.996904 5721.200497 4453.181384 3607.799149 2753.365191 1541.569682 370.767548 192.448240 732.515310 1536.830024 1918.782179 1817.953908 961.173278 -10.576194 -265.980574 -91.763451 237.031920 457.835396 -208.263463 -658.242968 -410.869412 -92.154490 254.292350 -131.787890 -923.935453 -816.450137 -482.430396 -848.312215 -1666.293671 -1724.655861 -1603.504654 -1494.485924 -1403.453023 -1321.467416 -1234.185081 -1145.001151 -1063.881021 -988.420842 -917.319226 -849.930579 -785.978887 -725.330256 -667.900374 -613.620389 -562.425286 -514.249937 -469.027371 -426.687499 -387.155931 -350.352953 -316.192783 -284.583225 -255.425723 -228.615806 -204.043837 -181.595996 -161.155397 -142.603279 -125.820189 -110.687116 -97.086544 -84.903384 -74.025796 -64.345872 -55.760201 -48.170303 -41.482956 -35.610414 -30.470528 -25.986789 -22.088286 -18.709612 -15.790700 -13.276627 -11.117364 -9.267500 -7.685922 -6.335431 -5.182256 -4.195287 -3.344760 -2.600565 -1.934381 -1.387009 -0.998837 -0.762116 -0.720206 -0.720206 -0.720206 11451.821658 11451.821658 11451.821658 11445.032698 11351.689344 10886.170601 11156.809992 12028.043792 11213.065609 11386.040570 11499.864606 10666.194337 10326.276305 10865.431081 9165.109030 8152.242154 7201.611064 7958.719053 7710.490797 6326.552796 6463.584306 8066.863005 8850.432782 8127.759830 5367.885665 5270.538127 4030.824430 2316.364686 -1747.517208 -769.779826 430.349054 4037.288805 4419.770758 5085.664107 3144.723907 9.917754 -468.071268 -121.677414 677.462403 1255.663276 -381.579339 -1356.105039 -605.838595 175.741708 1038.915860 122.054109 -1470.388740 -925.065001 86.370293 -678.495976 -2314.407022 -2212.099349 -1835.458072 -1620.362537 -1479.412282 -1382.060345 -1281.212814 -1163.866661 -1070.695674 -990.795315 -917.939763 -849.856154 -785.631765 -724.880094 -667.415488 -613.128321 -561.937206 -513.770526 -468.558829 -426.231159 -386.712876 -349.924221 -315.779406 -284.186197 -255.045959 -228.254095 -203.700808 -181.272097 -160.850887 -142.318229 -125.554487 -110.440489 -96.858568 -84.693509 -73.833365 -64.170141 -55.600358 -48.025487 -41.352274 -35.492954 -30.365375 -25.893035 -22.005040 -18.636008 -15.725903 -13.219833 -11.067794 -9.224370 -7.648362 -6.302276 -5.151487 -4.162568 -3.299406 -2.513172 -1.706909 -1.133024 -0.844789 -0.673679 -0.642478 -0.642478 -0.642478 -1.026284 -0.778759 -0.649379 -0.631966 -0.631966 -0.631966 -0.798157 -0.660267 -0.574092 -0.562352 -0.562352 -0.562352 -0.549017 -0.502802 -0.464839 -0.459466 -0.459466 -0.459466 -0.403363 -0.386364 -0.371690 -0.369520 -0.369520 -0.369520 -0.305630 -0.299800 -0.294900 -0.294198 -0.294198 -0.294198 -0.235207 -0.233695 -0.232679 -0.232568 -0.232568 -0.232568 -0.182236 -0.182332 -0.182741 -0.182845 -0.182845 -0.182845 -0.141466 -0.142087 -0.142927 -0.143090 -0.143090 -0.143090 -0.109741 -0.110464 -0.111349 -0.111513 -0.111513 -0.111513 -0.084953 -0.085624 -0.086418 -0.086563 -0.086563 -0.086563 -0.065577 -0.066149 -0.066817 -0.066939 -0.066939 -0.066939 -0.050456 -0.050926 -0.051471 -0.051569 -0.051569 -0.051569 -0.038688 -0.039065 -0.039502 -0.039580 -0.039580 -0.039580 -0.029558 -0.029858 -0.030204 -0.030266 -0.030266 -0.030266 -0.022501 -0.022737 -0.023009 -0.023058 -0.023058 -0.023058 -0.017066 -0.017250 -0.017463 -0.017501 -0.017501 -0.017501 -0.012896 -0.013039 -0.013204 -0.013234 -0.013234 -0.013234 -0.009708 -0.009819 -0.009947 -0.009971 -0.009971 -0.009971 -0.007282 -0.007367 -0.007466 -0.007484 -0.007484 -0.007484 -0.005441 -0.005507 -0.005583 -0.005596 -0.005596 -0.005596 -0.004051 -0.004101 -0.004159 -0.004169 -0.004169 -0.004169 -0.003004 -0.003043 -0.003087 -0.003095 -0.003095 -0.003095 -0.002220 -0.002249 -0.002283 -0.002289 -0.002289 -0.002289 -0.001634 -0.001656 -0.001682 -0.001686 -0.001686 -0.001686 -0.001199 -0.001215 -0.001234 -0.001238 -0.001238 -0.001238 -0.000876 -0.000888 -0.000902 -0.000905 -0.000905 -0.000905 -0.000638 -0.000647 -0.000657 -0.000659 -0.000659 -0.000659 -0.000462 -0.000469 -0.000477 -0.000479 -0.000479 -0.000479 -0.000334 -0.000339 -0.000345 -0.000346 -0.000346 -0.000346 -0.000241 -0.000244 -0.000249 -0.000249 -0.000249 -0.000249 -0.000173 -0.000175 -0.000178 -0.000179 -0.000179 -0.000179 -0.000123 -0.000125 -0.000128 -0.000128 -0.000128 -0.000128 -0.000088 -0.000089 -0.000091 -0.000091 -0.000091 -0.000091 -0.000062 -0.000063 -0.000065 -0.000065 -0.000065 -0.000065 -0.000044 -0.000045 -0.000046 -0.000046 -0.000046 -0.000046 -0.000031 -0.000032 -0.000032 -0.000032 -0.000032 -0.000032 -0.000022 -0.000022 -0.000023 -0.000023 -0.000023 -0.000023 -0.000015 -0.000015 -0.000016 -0.000016 -0.000016 -0.000016 -0.000011 -0.000011 -0.000011 -0.000011 -0.000011 -0.000011 -0.000007 -0.000007 -0.000008 -0.000008 -0.000008 -0.000008 -0.000005 -0.000005 -0.000005 -0.000005 -0.000005 -0.000005 -0.000003 -0.000004 -0.000004 -0.000004 -0.000004 -0.000004 -0.000002 -0.000002 -0.000003 -0.000003 -0.000003 -0.000003 -0.000002 -0.000002 -0.000002 -0.000002 -0.000002 -0.000002 -0.000001 -0.000001 -0.000001 -0.000001 -0.000001 -0.000001 -0.000001 -0.000001 -0.000001 -0.000001 -0.000001 -0.000001 -0.000001 -0.000001 -0.000001 -0.000001 -0.000001 -0.000001 -0.000000 -0.000000 -0.000000 -0.000000 -0.000000 -0.000000 -0.000000 -0.000000 -0.000000 -0.000000 -0.000000 -0.000000 -0.000000 -0.000000 -0.000000 -0.000000 -0.000000 -0.000000 -0.000000 -0.000000 -0.000000 -0.000000 -0.000000 -0.000000 -0.000000 -0.000000 -0.000000 -0.000000 -0.000000 -0.000000 -0.000000 -0.000000 -0.000000 -0.000000 -0.000000 -0.000000 -0.000000 -0.000000 -0.000000 -0.000000 -0.000000 -0.000000 -0.000000 -0.000000 -0.000000 -0.000000 -0.000000 -0.000000 -0.000000 -0.000000 -0.000000 -0.000000 -0.000000 -0.000000 -0.000000 -0.000000 -0.000000 -0.000000 -0.000000 -0.000000 -0.000000 -0.000000 -0.000000 -0.000000 -0.000000 -0.000000 -0.000000 -0.000000 -0.000000 -0.000000 -0.000000 -0.000000 -0.000000 -0.000000 -0.000000 -0.000000 -0.000000 -0.000000 -0.000000 -0.000000 -0.000000 -0.000000 -0.000000 -0.000000 -0.000000 -0.000000 -0.000000 -0.000000 -0.000000 -0.000000 -0.000000 -0.000000 -0.000000 -0.000000 -0.000000 -0.000000 -0.000000 -0.000000 -0.000000 0.000000 0.000000 0.000000 -0.000000 -0.000000 -0.000000 0.000000 0.000000 0.000000 -0.000000 -0.000000 -0.000000 0.000000 0.000000 0.000000 -0.000000 -0.000000 -0.000000 0.000000 0.000000 0.000000 -0.000000 -0.000000 -0.000000 0.000000 0.000000 0.000000 -0.000000 -0.000000 -0.000000 0.000000 0.000000 0.000000 -0.000000 -0.000000 -0.000000 0.000000 0.000000 0.000000 -0.000000 -0.000000 -0.000000 0.000000 0.000000 0.000000 -0.000000 -0.000000 -0.000000 0.000000 0.000000 0.000000 -0.000000 -0.000000 -0.000000 0.000000 0.000000 0.000000 -0.000000 -0.000000 -0.000000 0.000000 0.000000 0.000000 -0.000000 -0.000000 -0.000000 0.000000 0.000000 0.000000 -0.000000 -0.000000 -0.000000 0.000000 0.000000 0.000000 -0.000000 -0.000000 -0.000000 0.000000 0.000000 0.000000 -0.000000 -0.000000 -0.000000 0.000000 0.000000 0.000000 -0.000000 -0.000000 -0.000000 0.000000 0.000000 0.000000 -0.000000 -0.000000 -0.000000 0.000000 0.000000 0.000000 -0.000000 -0.000000 -0.000000 0.000000 0.000000 0.000000 -0.000000 -0.000000 -0.000000 0.000000 0.000000 0.000000 -0.000000 -0.000000 -0.000000 0.000000 0.000000 0.000000 -0.000000 -0.000000 -0.000000 0.000000 0.000000 0.000000 -0.000000 -0.000000 -0.000000 0.000000 0.000000 0.000000 -0.000000 -0.000000 -0.000000 0.000000 0.000000 0.000000 -0.000000 -0.000000 -0.000000 0.000000 0.000000 0.000000 -0.000000 -0.000000 -0.000000 0.000000 0.000000 0.000000 -0.000000 -0.000000 -0.000000 0.000000 0.000000 0.000000 -0.000000 -0.000000 -0.000000 0.000000 0.000000 0.000000 -0.000000 -0.000000 -0.000000 0.000000 0.000000 0.000000 -0.000000 -0.000000 -0.000000 0.000000 0.000000 0.000000 -0.000000 -0.000000 -0.000000 0.000000 0.000000 0.000000 -0.000000 -0.000000 -0.000000 0.000000 0.000000 0.000000 -0.000000 -0.000000 -0.000000 0.000000 0.000000 0.000000 -0.000000 -0.000000 -0.000000 0.000000 0.000000 0.000000 -0.000000 -0.000000 -0.000000 0.000000 0.000000 0.000000 -0.000000 -0.000000 -0.000000 0.000000 0.000000 0.000000 -0.000000 -0.000000 -0.000000 0.000000 0.000000 0.000000 -0.000000 -0.000000 -0.000000 0.000000 0.000000 0.000000 -0.000000 -0.000000 -0.000000 0.000000 0.000000 0.000000 -0.000000 -0.000000 -0.000000 0.000000 0.000000 0.000000 -0.000000 -0.000000 -0.000000 0.000000 0.000000 0.000000 -0.000000 -0.000000 -0.000000 0.000000 0.000000 0.000000 -0.000000 -0.000000 -0.000000 0.000000 0.000000 0.000000 -0.000000 -0.000000 -0.000000 0.000000 0.000000 0.000000 -0.000000 -0.000000 -0.000000 0.000000 0.000000 0.000000 -0.000000 -0.000000 -0.000000 0.000000 0.000000 0.000000 -0.000000 -0.000000 -0.000000 0.000000 0.000000 0.000000 -0.000000 -0.000000 -0.000000 0.000000 0.000000 0.000000 -0.000000 -0.000000 -0.000000 0.000000 0.000000 0.000000 -0.000000 -0.000000 -0.000000 0.000000 0.000000 0.000000 -0.000000 -0.000000 -0.000000 0.000000 0.000000 0.000000 -0.000000 -0.000000 -0.000000 0.000000 0.000000 0.000000 -0.000000 -0.000000 -0.000000 0.000000 0.000000 0.000000 -0.000000 -0.000000 -0.000000 0.000000 0.000000 0.000000 -0.000000 -0.000000 -0.000000 0.000000 0.000000 0.000000 -0.000000 -0.000000 -0.000000 0.000000 0.000000 0.000000 -0.000000 -0.000000 -0.000000 0.000000 0.000000 0.000000 -0.000000 -0.000000 -0.000000 0.000000 0.000000 0.000000 -0.000000 -0.000000 -0.000000 0.000000 0.000000 0.000000 -0.000000 -0.000000 -0.000000 0.000000 0.000000 0.000000 -0.000000 -0.000000 -0.000000 0.000000 0.000000 0.000000 -0.000000 -0.000000 -0.000000 0.000000 0.000000 0.000000 -0.000000 -0.000000 -0.000000 0.000000 0.000000 0.000000 -0.000000 -0.000000 -0.000000 0.000000 0.000000 0.000000 -0.000000 -0.000000 -0.000000 0.000000 0.000000 0.000000 -0.000000 -0.000000 -0.000000 0.000000 0.000000 0.000000 -0.000000 -0.000000 -0.000000 0.000000 0.000000 0.000000 -0.000000 -0.000000 -0.000000 0.000000 0.000000 0.000000 -0.000000 -0.000000 -0.000000 0.000000 0.000000 0.000000 -0.000000 -0.000000 -0.000000 0.000000 0.000000 0.000000 -0.000000 -0.000000 -0.000000 0.000000 0.000000 0.000000 -0.000000 -0.000000 -0.000000 0.000000 0.000000 0.000000 -0.000000 -0.000000 -0.000000 0.000000 0.000000 0.000000 -0.000000 -0.000000 -0.000000 0.000000 0.000000 0.000000 -0.000000 -0.000000 -0.000000 0.000000 0.000000 0.000000 -0.000000 -0.000000 -0.000000 0.000000 0.000000 0.000000 -0.000000 -0.000000 -0.000000 0.000000 0.000000 0.000000 -0.000000 -0.000000 -0.000000 0.000000 0.000000 0.000000 -0.000000 -0.000000 -0.000000 0.000000 0.000000 0.000000 -0.000000 -0.000000 -0.000000 0.000000 0.000000 0.000000 -0.000000 -0.000000 -0.000000 0.000000 0.000000 0.000000 -0.000000 -0.000000 -0.000000 0.000000 0.000000 0.000000 -0.000000 -0.000000 -0.000000 0.000000 0.000000 0.000000 -0.000000 -0.000000 -0.000000 0.000000 0.000000 0.000000 -0.000000 -0.000000 -0.000000 0.000000 0.000000 0.000000 -0.000000 -0.000000 -0.000000 0.000000 0.000000 0.000000 -0.000000 -0.000000 -0.000000 0.000000 0.000000 0.000000 -0.000000 -0.000000 -0.000000 0.000000 0.000000 0.000000 -0.000000 -0.000000 -0.000000 0.000000 0.000000 0.000000 -0.000000 -0.000000 -0.000000 0.000000 0.000000 0.000000 -0.000000 -0.000000 -0.000000 0.000000 0.000000 0.000000 -0.000000 -0.000000 -0.000000 0.000000 0.000000 0.000000 -0.000000 -0.000000 -0.000000 0.000000 0.000000 0.000000 -0.000000 -0.000000 -0.000000 0.000000 0.000000 0.000000 -0.000000 -0.000000 -0.000000 0.000000 0.000000 0.000000 -0.000000 -0.000000 -0.000000 0.000000 0.000000 0.000000 -0.000000 -0.000000 -0.000000 -0.000000 -0.000000 -0.000000 -0.000000 -0.000000 -0.000000 -0.000000 -0.000000 -0.000000 -0.000000 -0.000000 -0.000000 -0.000000 -0.000000 -0.000000 -0.000000 -0.000000 -0.000000 -0.000000 -0.000000 -0.000000 -0.000000 -0.000000 -0.000000 -0.000000 -0.000000 -0.000000 -0.000000 -0.000000 -0.000000 -0.000000 -0.000000 -0.000000 -0.000000 -0.000000 -0.000000 -0.000000 -0.000000 -0.000000 -0.000000 -0.000000 -0.000000 -0.000000 -0.000000 -0.000000 -0.000000 -0.000000 -0.000000 -0.000000 -0.000000 -0.000000 -0.000000 -0.000000 -0.000000 -0.000000 -0.000000 -0.000000 -0.000000 -0.000000 -0.000000 -0.000000 -0.000000 -0.000000 -0.000000 -0.000000 -0.000000 -0.000000 -0.000000 -0.000000 -0.000000 -0.000000 -0.000000 -0.000000 -0.000000 -0.000000 -0.000000 -0.000000 -0.000000 -0.000000 -0.000000 -0.000000 -0.000000 -0.000000 -0.000000 -0.000000 -0.000000 -0.000000 -0.000000 -0.000000 -0.000000 -0.000000 -0.000000 -0.000000 -0.000000 -0.000000 -0.000000 -0.000000 -0.000000 -0.000000 -0.000000 -0.000000 -0.000000 -0.000000 -0.000000 -0.000000 -0.000000 -0.000000 -0.000000 -0.000000 -0.000000 -0.000000 -0.000000 -0.000000 -0.000000 -0.000000 -0.000000 -0.000000 -0.000000 -0.000000 -0.000000 -0.000000 -0.000000 -0.000000 -0.000000 -0.000000 -0.000000 -0.000000 -0.000000 -0.000000 -0.000000 -0.000000 -0.000000 -0.000000 -0.000000 -0.000000 -0.000000 -0.000000 -0.000000 -0.000000 -0.000000 -0.000000 -0.000000 -0.000000 -0.000000 -0.000000 -0.000000 -0.000000 -0.000000 -0.000000 -0.000000 -0.000000 -0.000000 -0.000000 -0.000000 -0.000000 -0.000000 -0.000000 -0.000000 -0.000000 -0.000000 -0.000000 -0.000000 -0.000000 -0.000000 -0.000000 -0.000000 -0.000000 -0.000000 -0.000000 -0.000000 -0.000000 -0.000000 -0.000000 -0.000000 -0.000000 -0.000000 -0.000000 -0.000000 -0.000000 -0.000000 -0.000000 -0.000000 -0.000000 -0.000001 -0.000001 -0.000001 -0.000001 -0.000001 -0.000001 -0.000001 -0.000001 -0.000001 -0.000001 -0.000001 -0.000001 -0.000001 -0.000001 -0.000001 -0.000001 -0.000001 -0.000001 -0.000002 -0.000002 -0.000002 -0.000002 -0.000002 -0.000002 -0.000002 -0.000002 -0.000002 -0.000002 -0.000002 -0.000002 -0.000003 -0.000003 -0.000003 -0.000003 -0.000003 -0.000003 -0.000004 -0.000004 -0.000004 -0.000004 -0.000004 -0.000004 -0.000005 -0.000005 -0.000005 -0.000005 -0.000005 -0.000005 -0.000007 -0.000006 -0.000006 -0.000006 -0.000006 -0.000006 -0.000009 -0.000008 -0.000008 -0.000008 -0.000008 -0.000008 -0.000012 -0.000010 -0.000009 -0.000009 -0.000009 -0.000009 20500.578009 20500.578009 20500.578009 20677.367296 22967.445334 21794.646167 18285.711277 21667.894934 24366.610830 24341.362767 22740.767746 23213.454485 23164.670496 22170.022142 21948.410475 20392.904605 21551.676126 19775.186460 19790.214558 17979.371803 17438.257274 17507.092848 15027.186078 14531.321434 14474.146908 13438.572567 14535.566686 14637.508648 16106.210102 14443.101713 12842.262764 14079.419382 16539.705615 13749.901655 7452.778749 6626.284823 5465.244418 8014.357028 6538.222953 4955.264075 7249.869148 5392.386327 5190.859891 3130.358391 1634.597845 13042.513079 10010.773114 3325.009580 442.444528 4609.922183 2836.453423 -508.203018 6669.892352 -570.952850 -470.151425 6433.993394 -2209.316716 -2013.492406 6717.882137 1420.109401 479.317892 33.734184 -433.960523 -800.335198 -1050.227604 -1458.604844 -107.980306 48.635110 -21.257710 -77.732446 -165.531329 40.788331 35.921515 23.564748 14.267669 9.058656 6.040801 4.102569 2.759914 1.810954 1.152759 0.712581 0.430019 0.255485 0.151062 0.089955 0.054536 0.033904 0.021652 0.014155 0.009407 0.006305 0.004230 0.002822 0.001862 0.001208 0.000767 0.000472 0.000278 0.000153 0.000075 0.000028 0.000002 -0.000011 -0.000015 -0.000015 -0.000013 -0.000011 -0.000011 -0.000011 -0.000011 20164.589399 20164.589399 20164.589399 20177.973819 20854.447174 19960.997737 19046.605324 21586.271129 22216.839886 21799.667462 22044.986875 22763.956694 22496.040424 21266.855542 20938.839669 20012.764504 20051.228354 18637.009635 18419.443453 17618.295354 16481.508182 16189.134073 15052.097600 14348.758302 14113.511626 13709.654443 13909.190239 13719.838528 13602.198884 13053.866148 12290.450212 12452.408492 12320.819816 10882.852408 9194.352372 8595.009160 8123.331793 8103.944902 7448.703929 6481.913416 6622.609661 5778.142922 5247.264115 3988.706278 3756.021239 5868.955872 6161.578223 4357.020305 2959.398700 3922.965993 3920.984564 2707.646509 2789.592822 1746.020512 1670.048033 1851.254098 630.893044 883.559130 1697.882907 1104.092694 476.292195 113.414029 -187.248103 -387.808767 -447.502552 -297.024022 -39.076662 43.338853 13.343144 -8.445849 -0.112921 26.064723 30.025474 20.677961 13.381033 8.867978 6.045401 4.149561 2.809105 1.852648 1.185015 0.735869 0.445822 0.265626 0.157261 0.093598 0.056618 0.035079 0.022318 0.014541 0.009640 0.006451 0.004325 0.002887 0.001906 0.001239 0.000788 0.000486 0.000288 0.000160 0.000079 0.000031 0.000004 -0.000010 -0.000015 -0.000016 -0.000015 -0.000013 -0.000013 -0.000013 -0.000013 20006.098389 20006.098389 20006.098389 20005.327436 20016.954805 20019.296379 20219.003868 20753.335958 20876.674914 20886.992087 20943.577399 20814.471975 20508.894124 19949.060419 19422.994409 18899.053067 18387.140518 17817.192600 17337.939456 16863.427265 16364.562868 15900.855285 15407.480889 14927.572535 14483.955895 14070.683791 13704.423625 13343.567051 12994.669625 12640.619704 12292.436766 11949.509198 11486.274963 10801.032042 10001.746965 9300.260957 8709.193628 8207.797924 7677.619974 7121.055339 6612.795035 6120.332381 5635.016307 5166.371401 4853.312488 4786.401671 4585.982509 4132.546002 3703.174318 3417.725779 3040.344675 2587.555445 2189.047370 1815.806439 1595.360791 1417.992526 1203.902698 1134.823211 1045.352598 766.214430 454.817512 200.319081 24.542754 -62.865021 -67.993775 -19.256574 32.368338 46.533991 39.079888 32.670614 31.703672 30.640068 25.125876 18.203311 12.606433 8.721092 6.071092 4.208589 2.866383 1.900416 1.221969 0.762695 0.464157 0.277480 0.164559 0.097914 0.059097 0.036482 0.023114 0.015001 0.009915 0.006623 0.004438 0.002962 0.001958 0.001275 0.000813 0.000503 0.000299 0.000167 0.000085 0.000035 0.000006 -0.000009 -0.000015 -0.000017 -0.000016 -0.000014 -0.000014 -0.000014 -0.000014 19986.314222 19986.314222 19986.314222 19989.107664 20017.224055 20117.132749 20318.047486 20561.848717 20713.659946 20787.442118 20769.881378 20595.919861 20247.486176 19772.206396 19260.885418 18745.319334 18228.572610 17711.527606 17235.293593 16777.467493 16316.888899 15870.927469 15419.809983 14966.594445 14525.688967 14099.560181 13695.588682 13310.204136 12952.696650 12615.850360 12278.766418 11905.632885 11424.670313 10794.293474 10076.713089 9383.971276 8763.616214 8214.524453 7690.478722 7170.136901 6670.785837 6190.674655 5729.503923 5298.548663 4959.185176 4731.200365 4475.520455 4116.133188 3735.263584 3376.610231 2971.162803 2530.279159 2126.550595 1797.319378 1570.229221 1397.786784 1252.325042 1141.873548 981.866158 726.719237 447.160634 213.409156 56.175884 -17.360829 -21.271945 11.187676 40.483926 47.969780 42.563340 37.231588 34.442444 30.632018 24.456650 17.835253 12.492263 8.702339 6.077950 4.219779 2.876779 1.908993 1.228599 0.767520 0.467469 0.279630 0.165888 0.098703 0.059552 0.036740 0.023260 0.015086 0.009966 0.006655 0.004458 0.002976 0.001967 0.001281 0.000817 0.000506 0.000301 0.000169 0.000086 0.000035 0.000006 -0.000009 -0.000015 -0.000017 -0.000016 -0.000014 -0.000014 -0.000014 -0.000014 19986.314222 19986.314222 19986.314222 19989.107664 20017.224055 20117.132749 20318.047486 20561.848717 20713.659946 20787.442118 20769.881378 20595.919861 20247.486176 19772.206396 19260.885418 18745.319334 18228.572610 17711.527606 17235.293593 16777.467493 16316.888899 15870.927469 15419.809983 14966.594445 14525.688967 14099.560181 13695.588682 13310.204136 12952.696650 12615.850360 12278.766418 11905.632885 11424.670313 10794.293474 10076.713089 9383.971276 8763.616214 8214.524453 7690.478722 7170.136901 6670.785837 6190.674655 5729.503923 5298.548663 4959.185176 4731.200365 4475.520455 4116.133188 3735.263584 3376.610231 2971.162803 2530.279159 2126.550595 1797.319378 1570.229221 1397.786784 1252.325042 1141.873548 981.866158 726.719237 447.160634 213.409156 56.175884 -17.360829 -21.271945 11.187676 40.483926 47.969780 42.563340 37.231588 34.442444 30.632018 24.456650 17.835253 12.492263 8.702339 6.077950 4.219779 2.876779 1.908993 1.228599 0.767520 0.467469 0.279630 0.165888 0.098703 0.059552 0.036740 0.023260 0.015086 0.009966 0.006655 0.004458 0.002976 0.001967 0.001281 0.000817 0.000506 0.000301 0.000169 0.000086 0.000035 0.000006 -0.000009 -0.000015 -0.000017 -0.000016 -0.000014 -0.000014 -0.000014 -0.000014 19986.314222 19986.314222 19986.314222 19989.107664 20017.224055 20117.132749 20318.047486 20561.848717 20713.659946 20787.442118 20769.881378 20595.919861 20247.486176 19772.206396 19260.885418 18745.319334 18228.572610 17711.527606 17235.293593 16777.467493 16316.888899 15870.927469 15419.809983 14966.594445 14525.688967 14099.560181 13695.588682 13310.204136 12952.696650 12615.850360 12278.766418 11905.632885 11424.670313 10794.293474 10076.713089 9383.971276 8763.616214 8214.524453 7690.478722 7170.136901 6670.785837 6190.674655 5729.503923 5298.548663 4959.185176 4731.200365 4475.520455 4116.133188 3735.263584 3376.610231 2971.162803 2530.279159 2126.550595 1797.319378 1570.229221 1397.786784 1252.325042 1141.873548 981.866158 726.719237 447.160634 213.409156 56.175884 -17.360829 -21.271945 11.187676 40.483926 47.969780 42.563340 37.231588 34.442444 30.632018 24.456650 17.835253 12.492263 8.702339 6.077950 4.219779 2.876779 1.908993 1.228599 0.767520 0.467469 0.279630 0.165888 0.098703 0.059552 0.036740 0.023260 0.015086 0.009966 0.006655 0.004458 0.002976 0.001967 0.001281 0.000817 0.000506 0.000301 0.000169 0.000086 0.000035 0.000006 -0.000009 -0.000015 -0.000017 -0.000016 -0.000014 -0.000014 -0.000014 -0.000014 11488.157812 11488.157812 11488.157812 11480.593325 11399.209077 10872.226579 11272.372196 12342.882553 11283.865880 11642.158646 11863.380332 10820.485998 10381.013289 11320.577295 9372.013642 8233.868002 6967.960722 7914.320967 7640.890193 6061.259844 6006.518204 7811.317029 8701.735693 8337.994842 5261.418799 5840.146196 4069.386108 2318.483271 -1871.916163 -475.644033 58.272014 4533.683738 4739.580676 6364.128037 4661.098050 133.490389 -441.659390 -122.762928 714.217667 1307.873700 -423.494129 -1424.607210 -624.487461 195.114042 1076.026356 108.519654 -1520.797824 -935.334839 114.328468 -678.345990 -2362.733842 -2249.347853 -1852.737208 -1629.522642 -1485.070070 -1387.661432 11759.676826 11759.676826 11759.676826 11738.686034 11524.359784 11493.920692 11905.465524 14851.528842 14040.226478 9630.912327 10191.884876 11275.458992 14268.689797 12665.706357 12724.353766 13335.929128 13190.931084 9674.818583 13601.719317 12049.736889 13525.462314 11069.152190 13850.309740 10621.737486 13666.408388 13459.735514 12846.951481 11742.490189 10543.100558 9425.138346 12731.190664 12386.730200 12420.133578 15480.447313 13885.487636 11586.612929 11924.956660 11503.571538 13176.251610 11784.215353 12587.303642 11340.468540 11835.352324 10270.319130 12817.322879 12688.609027 12637.338186 12554.233884 12942.124527 16676.846682 16032.285914 12406.747776 12250.112531 -6542.848887 55.453830 -860.704214 12176.473498 12176.473498 12176.473498 12104.771956 11371.939459 11693.867834 10123.059971 10413.256285 12324.080593 9598.156239 11279.540802 10881.832375 12508.579128 10505.128459 9178.430693 8651.611028 12403.693567 11268.594453 12799.118224 9211.000149 12236.760907 11553.997713 9441.600083 9952.572814 11661.100317 7167.454302 9758.289475 11877.382763 11285.206503 10999.569933 9407.127548 10669.105811 14871.736135 12406.593470 12188.929935 11909.154288 11522.223359 12259.932266 12850.435026 13502.492299 13403.605461 14804.201464 12767.136403 12493.406888 12514.825114 12303.603217 12020.219411 12555.670096 14290.655777 14466.847664 14006.250403 14272.149525 6248.449488 6576.037315 -153.925715 100.704183 12505.848272 12505.848272 12505.848272 12487.108341 12213.667421 13063.637288 13348.902757 15088.405576 12221.127435 8782.335664 8625.654425 9087.865247 10219.796231 9690.610859 11140.550141 10161.244722 11709.559646 11910.318737 8868.267497 11595.293620 12733.335081 12157.883037 10218.025344 11368.983430 13132.513104 11945.097761 10218.927709 10267.940662 12619.447989 12236.546182 11652.051153 11583.633123 12526.895679 13807.449528 13916.850386 12560.654706 12189.868910 11963.111054 11267.176806 16236.833898 12731.389220 12862.994316 14978.292040 12936.221361 13587.727306 14117.756754 13060.726309 13681.781295 14434.687201 14952.796349 7931.725108 16711.701562 4750.882595 11304.978597 