<VTKFile type="PolyData">
<PolyData>
<Piece NumberOfPoints="8632" NumberOfVerts="8632" NumberOfLines="0" NumberOfStrips="0" NumberOfPolys="0">
<PointData>
<DataArray type="Float64" Name="Pressure" format="ascii">
 13812.272276 13812.272276 13812.272276 13786.613620 13511.859046 12878.008383 12313.333110 11781.783932 11229.011016 10674.172162 10132.774325 9587.900172 9025.952267 8423.711332 7753.605702 7017.155980 6243.369900 5480.280234 4774.650959 4156.055009 3594.366366 3001.716133 2333.086560 1638.748343 1060.262529 699.647755 533.602650 473.259804 423.594370 333.588740 251.303186 243.204380 272.339967 253.809831 176.167016 121.448781 106.251557 59.030145 -26.622531 -65.909061 -49.158476 -54.721478 -122.262539 -181.558989 -177.577051 -151.206549 -183.660626 -312.879903 -474.597127 -612.855615 -760.015766 -941.128110 -1089.974479 -1148.648263 -1137.177789 -1088.621081 -1020.342695 -943.091293 -864.030858 -786.915288 -713.379844 -644.097516 -579.315530 -519.086225 -463.362480 -412.038538 -364.969555 -321.983032 -282.887017 -247.476664 -215.539540 -186.859787 -161.221203 -138.409416 -118.213369 -100.426346 -84.846757 -71.278849 -59.533439 -49.428709 -40.791066 -33.456003 -27.268925 -22.085862 -17.774018 -14.212127 -11.290580 -8.911323 -6.987554 -5.443223 -4.212385 -3.238441 -2.473292 -1.876474 -1.414269 -1.058849 -0.787462 -0.581672 -0.426673 -0.310676 -0.224365 -0.160443 -0.113234 -0.078388 -0.052651 -0.033644 -0.019281 -0.010760 -0.009206 -0.009206 -0.009206 13812.272276 13812.272276 13812.272276 13786.613620 13511.859046 12878.008383 12313.333110 11781.783932 11229.011016 10674.172162 10132.774325 9587.900172 9025.952267 8423.711332 7753.605702 7017.155980 6243.369900 5480.280234 4774.650959 4156.055009 3594.366366 3001.716133 2333.086560 1638.748343 1060.262529 699.647755 533.602650 473.259804 423.594370 333.588740 251.303186 243.204380 272.339967 253.809831 176.167016 121.448781 106.251557 59.030145 -26.622531 -65.909061 -49.158476 -54.721478 -122.262539 -181.558989 -177.577051 -151.206549 -183.660626 -312.879903 -474.597127 -612.855615 -760.015766 -941.128110 -1089.974479 -1148.648263 -1137.177789 -1088.621081 -1020.342695 -943.091293 -864.030858 -786.915288 -713.379844 -644.097516 -579.315530 -519.086225 -463.362480 -412.038538 -364.969555 -321.983032 -282.887017 -247.476664 -215.539540 -186.859787 -161.221203 -138.409416 -118.213369 -100.426346 -84.846757 -71.278849 -59.533439 -49.428709 -40.791066 -33.456003 -27.268925 -22.085862 -17.774018 -14.212127 -11.290580 -8.911323 -6.987554 -5.443223 -4.212385 -3.238441 -2.473292 -1.876474 -1.414269 -1.058849 -0.787462 -0.581672 -0.426673 -0.310676 -0.224365 -0.160443 -0.113234 -0.078388 -0.052651 -0.033644 -0.019281 -0.010760 -0.009206 -0.009206 -0.009206 13812.272276 13812.272276 13812.272276 13786.613620 13511.859046 12878.008383 12313.333110 11781.783932 11229.011016 10674.172162 10132.774325 9587.900172 9025.952267 8423.711332 7753.605702 7017.155980 6243.369900 5480.280234 4774.650959 4156.055009 3594.366366 3001.716133 2333.086560 1638.748343 1060.262529 699.647755 533.602650 473.259804 423.594370 333.588740 251.303186 243.204380 272.339967 253.809831 176.167016 121.448781 106.251557 59.030145 -26.622531 -65.909061 -49.158476 -54.721478 -122.262539 -181.558989 -177.577051 -151.206549 -183.660626 -312.879903 -474.597127 -612.855615 -760.015766 -941.128110 -1089.974479 -1148.648263 -1137.177789 -1088.621081 -1020.342695 -943.091293 -864.030858 -786.915288 -713.379844 -644.097516 -579.315530 -519.086225 -463.362480 -412.038538 -364.969555 -321.983032 -282.887017 -247.476664 -215.539540 -186.859787 -161.221203 -138.409416 -118.213369 -100.426346 -84.846757 -71.278849 -59.533439 -49.428709 -40.791066 -33.456003 -27.268925 -22.085862 -17.774018 -14.212127 -11.290580 -8.911323 -6.987554 -5.443223 -4.212385 -3.238441 -2.473292 -1.876474 -1.414269 -1.058849 -0.787462 -0.581672 -0.426673 -0.310676 -0.224365 -0.160443 -0.113234 -0.078388 -0.052651 -0.033644 -0.019281 -0.010760 -0.009206 -0.009206 -0.009206 13792.723873 13792.723873 13792.723873 13764.300489 13453.851800 12751.513834 12170.163801 11652.386320 11096.861790 10567.547848 10059.973163 9532.137193 8984.327515 8387.574845 7701.369575 6944.935441 6151.474399 5382.658608 4679.021160 4079.568901 3556.159256 2973.891938 2292.496405 1561.151003 960.924834 625.045891 498.430010 473.529178 441.336429 330.922351 221.896221 227.552569 287.220235 271.605840 160.256913 100.273168 114.371548 69.842175 -47.916282 -88.749111 -42.073014 -32.506436 -127.626378 -205.756708 -185.812156 -131.049008 -144.714343 -302.593662 -484.957391 -605.359804 -748.425201 -975.712154 -1115.021911 -1172.571357 -1152.122332 -1097.413006 -1025.091676 -945.295310 -864.918142 -787.235994 -713.468066 -644.092506 -579.273930 -519.031051 -463.303201 -411.979154 -364.911827 -321.927770 -282.834609 -247.427287 -215.493264 -186.816616 -161.181106 -138.372339 -118.179245 -100.395096 -84.818295 -71.253079 -59.510252 -49.407989 -40.772681 -33.439811 -27.254774 -22.073590 -17.763463 -14.203123 -11.282961 -8.904929 -6.982232 -5.438830 -4.208789 -3.235521 -2.470941 -1.874596 -1.412780 -1.057679 -0.786550 -0.580966 -0.426131 -0.310262 -0.224049 -0.160195 -0.113019 -0.078154 -0.052356 -0.033327 -0.019075 -0.010637 -0.009106 -0.009106 -0.009106 13567.270438 13567.270438 13567.270438 13492.535202 12645.932655 11008.231492 10256.477816 9970.276092 9350.621279 9285.246283 9276.857128 8877.669652 8527.662537 8010.996886 7083.954730 6065.181897 5070.969383 4254.165117 3539.070829 3162.998534 3138.893630 2595.721167 1923.676163 551.525952 -339.774539 -269.211967 112.763829 519.039269 803.425483 325.787619 -310.594734 16.939196 542.387522 648.860897 -174.394192 -270.570248 321.797604 382.804444 -476.283632 -454.519555 87.060774 442.299961 -244.019765 -642.927131 -300.115327 140.687875 451.343354 -232.793244 -765.357025 -539.846216 -637.698193 -1498.837213 -1669.088791 -1453.667556 -1317.707862 -1197.076728 -1078.739777 -967.519444 -873.665697 -790.346089 -714.306001 -644.024023 -578.850527 -518.476384 -462.709302 -411.384949 -364.334481 -321.375227 -282.310657 -246.933684 -215.030675 -186.385086 -160.780311 -138.001739 -117.838161 -100.082751 -84.533821 -70.995513 -59.278526 -49.200915 -40.588953 -33.278007 -27.113372 -21.950993 -17.658022 -14.113175 -11.206860 -8.841074 -6.929094 -5.394975 -4.172892 -3.206378 -2.447474 -1.855852 -1.397930 -1.046008 -0.777450 -0.573927 -0.420728 -0.306138 -0.220899 -0.157725 -0.110872 -0.075754 -0.048723 -0.029141 -0.016524 -0.009284 -0.008034 -0.008034 -0.008034 13227.226618 13227.226618 13227.226618 13062.184708 11227.916295 7413.873490 6351.039883 7521.772158 5488.595704 8085.884957 8768.832783 7406.924822 7791.640857 7561.220062 5597.164701 4945.789813 3187.443250 2935.905373 1793.167510 1205.749745 3415.480308 1155.015122 1202.374473 -1178.430262 -2959.472644 -1423.181674 -343.970343 679.952150 1769.211622 438.563616 -1524.039934 -445.057463 1297.333079 1853.108389 -1122.023678 -1339.103208 979.327563 1180.431906 -1470.351937 -1253.488445 408.688023 1352.029812 -547.897073 -1500.848126 -500.444366 543.098226 1254.478876 -327.096272 -1334.454319 -420.426540 -29.553909 -1635.022711 -2328.286421 -1828.436218 -1518.763685 -1333.324119 -1170.889714 -1004.382412 -887.309941 -795.288744 -715.809651 -644.164723 -578.455942 -517.880086 -462.047522 -410.714568 -363.680055 -320.747788 -281.715300 -246.372700 -214.504926 -185.894652 -160.324830 -137.580594 -117.450579 -99.727848 -84.210614 -70.702910 -59.015314 -48.965747 -40.380341 -33.094333 -26.952903 -21.811905 -17.538440 -14.011202 -11.120619 -8.768740 -6.868927 -5.345341 -4.132285 -3.173428 -2.420955 -1.834682 -1.381166 -1.032839 -0.767188 -0.565994 -0.414638 -0.301487 -0.217331 -0.154881 -0.108257 -0.072320 -0.041246 -0.021595 -0.012594 -0.007554 -0.006655 -0.006655 -0.006655 -0.018292 -0.010740 -0.006974 -0.006477 -0.006477 -0.006477 -0.012156 -0.008139 -0.005704 -0.005377 -0.005377 -0.005377 -0.006335 -0.005068 -0.004033 -0.003887 -0.003887 -0.003887 -0.003616 -0.003167 -0.002777 -0.002719 -0.002719 -0.002719 -0.002169 -0.002014 -0.001880 -0.001860 -0.001860 -0.001860 -0.001346 -0.001297 -0.001259 -0.001253 -0.001253 -0.001253 -0.000851 -0.000840 -0.000835 -0.000835 -0.000835 -0.000835 -0.000544 -0.000545 -0.000550 -0.000551 -0.000551 -0.000551 -0.000349 -0.000353 -0.000359 -0.000360 -0.000360 -0.000360 -0.000224 -0.000228 -0.000233 -0.000234 -0.000234 -0.000234 -0.000143 -0.000146 -0.000150 -0.000151 -0.000151 -0.000151 -0.000091 -0.000093 -0.000096 -0.000097 -0.000097 -0.000097 -0.000058 -0.000059 -0.000061 -0.000062 -0.000062 -0.000062 -0.000036 -0.000037 -0.000039 -0.000039 -0.000039 -0.000039 -0.000023 -0.000024 -0.000024 -0.000025 -0.000025 -0.000025 -0.000014 -0.000015 -0.000015 -0.000015 -0.000015 -0.000015 -0.000009 -0.000009 -0.000009 -0.000010 -0.000010 -0.000010 -0.000005 -0.000006 -0.000006 -0.000006 -0.000006 -0.000006 -0.000003 -0.000003 -0.000004 -0.000004 -0.000004 -0.000004 -0.000002 -0.000002 -0.000002 -0.000002 -0.000002 -0.000002 -0.000001 -0.000001 -0.000001 -0.000001 -0.000001 -0.000001 -0.000001 -0.000001 -0.000001 -0.000001 -0.000001 -0.000001 -0.000000 -0.000000 -0.000001 -0.000001 -0.000001 -0.000001 -0.000000 -0.000000 -0.000000 -0.000000 -0.000000 -0.000000 -0.000000 -0.000000 -0.000000 -0.000000 -0.000000 -0.000000 -0.000000 -0.000000 -0.000000 -0.000000 -0.000000 -0.000000 -0.000000 -0.000000 -0.000000 -0.000000 -0.000000 -0.000000 -0.000000 -0.000000 -0.000000 -0.000000 -0.000000 -0.000000 -0.000000 -0.000000 -0.000000 -0.000000 -0.000000 -0.000000 -0.000000 -0.000000 -0.000000 -0.000000 -0.000000 -0.000000 -0.000000 -0.000000 -0.000000 -0.000000 -0.000000 -0.000000 -0.000000 -0.000000 -0.000000 -0.000000 -0.000000 -0.000000 -0.000000 -0.000000 -0.000000 -0.000000 -0.000000 -0.000000 -0.000000 -0.000000 -0.000000 -0.000000 -0.000000 -0.000000 -0.000000 -0.000000 -0.000000 -0.000000 -0.000000 -0.000000 -0.000000 -0.000000 -0.000000 -0.000000 -0.000000 -0.000000 -0.000000 -0.000000 -0.000000 -0.000000 -0.000000 -0.000000 -0.000000 -0.000000 -0.000000 -0.000000 -0.000000 -0.000000 -0.000000 -0.000000 -0.000000 -0.000000 -0.000000 -0.000000 -0.000000 -0.000000 -0.000000 -0.000000 -0.000000 -0.000000 -0.000000 -0.000000 -0.000000 -0.000000 -0.000000 -0.000000 -0.000000 -0.000000 -0.000000 -0.000000 -0.000000 -0.000000 -0.000000 -0.000000 -0.000000 -0.000000 -0.000000 -0.000000 -0.000000 -0.000000 -0.000000 -0.000000 -0.000000 -0.000000 -0.000000 -0.000000 -0.000000 -0.000000 -0.000000 -0.000000 -0.000000 -0.000000 -0.000000 -0.000000 -0.000000 -0.000000 -0.000000 -0.000000 -0.000000 -0.000000 -0.000000 -0.000000 -0.000000 -0.000000 -0.000000 -0.000000 -0.000000 -0.000000 -0.000000 -0.000000 -0.000000 -0.000000 -0.000000 -0.000000 -0.000000 -0.000000 -0.000000 -0.000000 -0.000000 -0.000000 -0.000000 -0.000000 -0.000000 0.000000 0.000000 0.000000 -0.000000 -0.000000 -0.000000 0.000000 0.000000 0.000000 -0.000000 -0.000000 -0.000000 0.000000 0.000000 0.000000 -0.000000 -0.000000 -0.000000 0.000000 0.000000 0.000000 -0.000000 -0.000000 -0.000000 0.000000 0.000000 0.000000 -0.000000 -0.000000 -0.000000 0.000000 0.000000 0.000000 -0.000000 -0.000000 -0.000000 0.000000 0.000000 0.000000 -0.000000 -0.000000 -0.000000 0.000000 0.000000 0.000000 -0.000000 -0.000000 -0.000000 0.000000 0.000000 0.000000 -0.000000 -0.000000 -0.000000 0.000000 0.000000 0.000000 -0.000000 -0.000000 -0.000000 0.000000 0.000000 0.000000 -0.000000 -0.000000 -0.000000 0.000000 0.000000 0.000000 -0.000000 -0.000000 -0.000000 0.000000 0.000000 0.000000 -0.000000 -0.000000 -0.000000 0.000000 0.000000 0.000000 -0.000000 -0.000000 -0.000000 0.000000 0.000000 0.000000 -0.000000 -0.000000 -0.000000 0.000000 0.000000 0.000000 -0.000000 -0.000000 -0.000000 0.000000 0.000000 0.000000 -0.000000 -0.000000 -0.000000 0.000000 0.000000 0.000000 -0.000000 -0.000000 -0.000000 0.000000 0.000000 0.000000 -0.000000 -0.000000 -0.000000 0.000000 0.000000 0.000000 -0.000000 -0.000000 -0.000000 0.000000 0.000000 0.000000 -0.000000 -0.000000 -0.000000 0.000000 0.000000 0.000000 -0.000000 -0.000000 -0.000000 0.000000 0.000000 0.000000 -0.000000 -0.000000 -0.000000 0.000000 0.000000 0.000000 -0.000000 -0.000000 -0.000000 0.000000 0.000000 0.000000 -0.000000 -0.000000 -0.000000 0.000000 0.000000 0.000000 -0.000000 -0.000000 -0.000000 0.000000 0.000000 0.000000 -0.000000 -0.000000 -0.000000 0.000000 0.000000 0.000000 -0.000000 -0.000000 -0.000000 0.000000 0.000000 0.000000 -0.000000 -0.000000 -0.000000 0.000000 0.000000 0.000000 -0.000000 -0.000000 -0.000000 0.000000 0.000000 0.000000 -0.000000 -0.000000 -0.000000 0.000000 0.000000 0.000000 -0.000000 -0.000000 -0.000000 0.000000 0.000000 0.000000 -0.000000 -0.000000 -0.000000 0.000000 0.000000 0.000000 -0.000000 -0.000000 -0.000000 0.000000 0.000000 0.000000 -0.000000 -0.000000 -0.000000 0.000000 0.000000 0.000000 -0.000000 -0.000000 -0.000000 0.000000 0.000000 0.000000 -0.000000 -0.000000 -0.000000 0.000000 0.000000 0.000000 -0.000000 -0.000000 -0.000000 0.000000 0.000000 0.000000 -0.000000 -0.000000 -0.000000 0.000000 0.000000 0.000000 -0.000000 -0.000000 -0.000000 0.000000 0.000000 0.000000 -0.000000 -0.000000 -0.000000 0.000000 0.000000 0.000000 -0.000000 -0.000000 -0.000000 0.000000 0.000000 0.000000 -0.000000 -0.000000 -0.000000 0.000000 0.000000 0.000000 -0.000000 -0.000000 -0.000000 0.000000 0.000000 0.000000 -0.000000 -0.000000 -0.000000 0.000000 0.000000 0.000000 -0.000000 -0.000000 -0.000000 0.000000 0.000000 0.000000 -0.000000 -0.000000 -0.000000 0.000000 0.000000 0.000000 -0.000000 -0.000000 -0.000000 0.000000 0.000000 0.000000 -0.000000 -0.000000 -0.000000 0.000000 0.000000 0.000000 -0.000000 -0.000000 -0.000000 0.000000 0.000000 0.000000 -0.000000 -0.000000 -0.000000 0.000000 0.000000 0.000000 -0.000000 -0.000000 -0.000000 0.000000 0.000000 0.000000 -0.000000 -0.000000 -0.000000 0.000000 0.000000 0.000000 -0.000000 -0.000000 -0.000000 0.000000 0.000000 0.000000 -0.000000 -0.000000 -0.000000 0.000000 0.000000 0.000000 -0.000000 -0.000000 -0.000000 0.000000 0.000000 0.000000 -0.000000 -0.000000 -0.000000 0.000000 0.000000 0.000000 -0.000000 -0.000000 -0.000000 0.000000 0.000000 0.000000 -0.000000 -0.000000 -0.000000 0.000000 0.000000 0.000000 -0.000000 -0.000000 -0.000000 0.000000 0.000000 0.000000 -0.000000 -0.000000 -0.000000 0.000000 0.000000 0.000000 -0.000000 -0.000000 -0.000000 0.000000 0.000000 0.000000 -0.000000 -0.000000 -0.000000 0.000000 0.000000 0.000000 -0.000000 -0.000000 -0.000000 0.000000 0.000000 0.000000 -0.000000 -0.000000 -0.000000 0.000000 0.000000 0.000000 -0.000000 -0.000000 -0.000000 0.000000 0.000000 0.000000 -0.000000 -0.000000 -0.000000 0.000000 0.000000 0.000000 -0.000000 -0.000000 -0.000000 0.000000 0.000000 0.000000 -0.000000 -0.000000 -0.000000 0.000000 0.000000 0.000000 -0.000000 -0.000000 -0.000000 0.000000 0.000000 0.000000 -0.000000 -0.000000 -0.000000 0.000000 0.000000 0.000000 -0.000000 -0.000000 -0.000000 0.000000 0.000000 0.000000 -0.000000 -0.000000 -0.000000 0.000000 0.000000 0.000000 -0.000000 -0.000000 -0.000000 0.000000 0.000000 0.000000 -0.000000 -0.000000 -0.000000 0.000000 0.000000 0.000000 -0.000000 -0.000000 -0.000000 0.000000 0.000000 0.000000 -0.000000 -0.000000 -0.000000 0.000000 0.000000 0.000000 -0.000000 -0.000000 -0.000000 0.000000 0.000000 0.000000 -0.000000 -0.000000 -0.000000 0.000000 0.000000 0.000000 -0.000000 -0.000000 -0.000000 0.000000 0.000000 0.000000 -0.000000 -0.000000 -0.000000 0.000000 0.000000 0.000000 -0.000000 -0.000000 -0.000000 0.000000 0.000000 0.000000 -0.000000 -0.000000 -0.000000 0.000000 0.000000 0.000000 -0.000000 -0.000000 -0.000000 0.000000 0.000000 0.000000 -0.000000 -0.000000 -0.000000 0.000000 0.000000 0.000000 -0.000000 -0.000000 -0.000000 0.000000 0.000000 0.000000 -0.000000 -0.000000 -0.000000 0.000000 0.000000 0.000000 -0.000000 -0.000000 -0.000000 0.000000 0.000000 0.000000 -0.000000 -0.000000 -0.000000 0.000000 0.000000 0.000000 -0.000000 -0.000000 -0.000000 0.000000 0.000000 0.000000 -0.000000 -0.000000 -0.000000 0.000000 0.000000 0.000000 -0.000000 -0.000000 -0.000000 0.000000 0.000000 0.000000 -0.000000 -0.000000 -0.000000 0.000000 0.000000 0.000000 -0.000000 -0.000000 -0.000000 0.000000 0.000000 0.000000 -0.000000 -0.000000 -0.000000 0.000000 0.000000 0.000000 -0.000000 -0.000000 -0.000000 0.000000 0.000000 0.000000 -0.000000 -0.000000 -0.000000 0.000000 0.000000 0.000000 -0.000000 -0.000000 -0.000000 0.000000 0.000000 0.000000 -0.000000 -0.000000 -0.000000 0.000000 0.000000 0.000000 -0.000000 -0.000000 -0.000000 0.000000 0.000000 0.000000 -0.000000 -0.000000 -0.000000 0.000000 0.000000 0.000000 -0.000000 -0.000000 -0.000000 0.000000 0.000000 0.000000 -0.000000 -0.000000 -0.000000 0.000000 0.000000 0.000000 -0.000000 -0.000000 -0.000000 0.000000 0.000000 0.000000 -0.000000 -0.000000 -0.000000 0.000000 0.000000 0.000000 -0.000000 -0.000000 -0.000000 0.000000 0.000000 0.000000 -0.000000 -0.000000 -0.000000 0.000000 0.000000 0.000000 -0.000000 -0.000000 -0.000000 0.000000 0.000000 0.000000 -0.000000 -0.000000 -0.000000 0.000000 0.000000 0.000000 -0.000000 -0.000000 -0.000000 -0.000000 -0.000000 -0.000000 -0.000000 -0.000000 -0.000000 -0.000000 -0.000000 -0.000000 -0.000000 -0.000000 -0.000000 -0.000000 -0.000000 -0.000000 -0.000000 -0.000000 -0.000000 -0.000000 -0.000000 -0.000000 -0.000000 -0.000000 -0.000000 -0.000000 -0.000000 -0.000000 0.000000 -0.000000 -0.000000 -0.000000 -0.000000 -0.000000 0.000000 -0.000000 -0.000000 -0.000000 -0.000000 -0.000000 0.000000 -0.000000 -0.000000 -0.000000 -0.000000 -0.000000 0.000000 -0.000000 -0.000000 -0.000000 -0.000000 -0.000000 0.000000 -0.000000 -0.000000 -0.000000 -0.000000 -0.000000 0.000000 -0.000000 -0.000000 -0.000000 -0.000000 -0.000000 0.000000 -0.000000 -0.000000 -0.000000 -0.000000 -0.000000 0.000000 -0.000000 -0.000000 -0.000000 -0.000000 -0.000000 0.000000 -0.000000 -0.000000 -0.000000 -0.000000 -0.000000 0.000000 -0.000000 -0.000000 -0.000000 -0.000000 -0.000000 0.000000 -0.000000 -0.000000 -0.000000 -0.000000 -0.000000 0.000000 -0.000000 -0.000000 -0.000000 -0.000000 -0.000000 0.000000 -0.000000 -0.000000 -0.000000 -0.000000 -0.000000 0.000000 -0.000000 -0.000000 -0.000000 -0.000000 -0.000000 0.000000 -0.000000 -0.000000 -0.000000 -0.000000 -0.000000 0.000000 -0.000000 -0.000000 -0.000000 -0.000000 -0.000000 0.000000 -0.000000 -0.000000 -0.000000 -0.000000 -0.000000 0.000000 -0.000000 -0.000000 -0.000000 -0.000000 -0.000000 0.000000 -0.000000 -0.000000 -0.000000 -0.000000 -0.000000 0.000000 -0.000000 -0.000000 -0.000000 -0.000000 -0.000000 0.000000 -0.000000 -0.000000 -0.000000 -0.000000 -0.000000 0.000000 -0.000000 -0.000000 -0.000000 -0.000000 -0.000000 0.000000 -0.000000 -0.000000 -0.000000 -0.000000 -0.000000 0.000000 -0.000000 -0.000000 -0.000000 -0.000000 -0.000000 0.000000 -0.000000 -0.000000 -0.000000 -0.000000 -0.000000 0.000000 -0.000000 -0.000000 -0.000000 -0.000000 -0.000000 0.000000 -0.000000 -0.000000 -0.000000 -0.000000 -0.000000 0.000000 -0.000000 -0.000000 -0.000000 -0.000000 -0.000000 0.000000 -0.000000 -0.000000 -0.000000 -0.000000 -0.000000 0.000000 -0.000000 -0.000000 -0.000000 -0.000000 -0.000000 -0.000000 -0.000000 -0.000000 -0.000000 -0.000000 -0.000000 -0.000000 -0.000000 -0.000000 -0.000000 -0.000000 -0.000000 -0.000000 -0.000000 -0.000000 -0.000000 -0.000000 -0.000000 -0.000000 -0.000000 -0.000000 -0.000000 -0.000000 -0.000000 -0.000000 -0.000000 -0.000000 -0.000000 -0.000000 -0.000000 13422.776531 13422.776531 13422.776531 13619.675885 16118.370916 16966.822289 14911.354935 17003.158399 18057.868047 18628.518295 17602.174050 16216.143666 14946.724243 14451.744176 14437.390721 11955.996172 10156.206018 9940.512512 8787.725264 7332.745290 6883.021339 4852.243194 3752.299634 3799.504307 4981.230873 4304.818267 2772.158248 1949.581541 1577.572988 1347.694560 1169.560999 1014.073241 873.541219 746.714171 633.633612 534.105553 447.451289 372.644359 308.503110 253.833226 207.505411 168.484948 135.834773 108.708225 86.340429 68.041723 53.193393 41.244778 31.710660 24.168234 18.253332 13.655909 10.114991 7.413329 5.372021 3.845295 2.715607 1.889164 1.291899 0.865941 0.566561 0.359566 0.219116 0.125917 0.065739 0.028226 0.005950 -0.006335 -0.012270 -0.014335 -0.014175 -0.012858 -0.011045 -0.009131 -0.007332 -0.005751 -0.004424 -0.003346 -0.002493 -0.001833 -0.001331 -0.000956 -0.000679 -0.000477 -0.000332 -0.000229 -0.000157 -0.000106 -0.000071 -0.000048 -0.000031 -0.000021 -0.000013 -0.000009 -0.000006 -0.000004 -0.000002 -0.000001 -0.000001 -0.000001 -0.000000 -0.000000 -0.000000 -0.000000 -0.000000 -0.000000 -0.000000 -0.000000 -0.000000 -0.000000 -0.000000 12891.241694 12891.241694 12891.241694 12959.705453 14376.942837 15815.103948 15392.679391 15739.039733 15717.379428 15613.202497 14522.227434 13620.882743 12842.755549 12897.034449 12530.941887 10416.529529 8952.380283 8415.448258 7605.981220 6560.314954 5802.182536 4703.660720 3874.271714 3538.517617 3345.026126 2873.555424 2303.071718 1857.754171 1563.420153 1350.376364 1174.199075 1017.936249 876.592394 749.254301 635.852968 536.084552 449.219082 374.215603 309.891813 255.054957 208.575929 169.418877 136.645161 109.406769 86.937918 68.548408 53.619177 41.599234 32.002950 24.406983 18.446507 13.810737 10.237911 7.509986 5.447291 3.903330 2.759898 1.922609 1.316876 0.884378 0.580003 0.369237 0.225974 0.130702 0.069017 0.030425 0.007388 -0.005424 -0.011717 -0.014019 -0.014013 -0.012791 -0.011034 -0.009151 -0.007366 -0.005789 -0.004461 -0.003380 -0.002522 -0.001857 -0.001350 -0.000970 -0.000690 -0.000486 -0.000339 -0.000234 -0.000160 -0.000109 -0.000073 -0.000049 -0.000032 -0.000021 -0.000014 -0.000009 -0.000006 -0.000004 -0.000002 -0.000001 -0.000001 -0.000001 -0.000000 -0.000000 -0.000000 -0.000000 -0.000000 -0.000000 -0.000000 -0.000000 -0.000000 -0.000000 -0.000000 12590.974855 12590.974855 12590.974855 12602.733013 12788.878949 13209.092184 13288.495493 13255.628238 13005.531913 12657.852288 12162.773047 11567.038595 10919.626544 10260.038149 9503.177140 8616.605670 7774.587914 7039.050084 6326.276958 5614.398727 4925.232305 4253.774920 3664.580123 3196.111082 2801.453929 2426.860258 2081.127522 1789.719322 1552.342736 1353.309258 1178.883360 1021.928359 879.852150 752.047909 638.341538 538.328538 451.235703 376.013621 311.483366 256.456062 209.803896 170.490231 137.574848 110.208247 87.623600 69.130063 54.108146 42.006467 32.338918 24.681544 18.668773 13.988976 10.379495 7.621384 5.534092 3.970297 2.811040 1.961255 1.345759 0.905717 0.595575 0.380451 0.233935 0.136264 0.072834 0.032990 0.009069 -0.004356 -0.011067 -0.013646 -0.013819 -0.012708 -0.011018 -0.009170 -0.007403 -0.005832 -0.004503 -0.003418 -0.002554 -0.001883 -0.001371 -0.000987 -0.000703 -0.000495 -0.000346 -0.000239 -0.000164 -0.000111 -0.000075 -0.000050 -0.000033 -0.000022 -0.000014 -0.000009 -0.000006 -0.000004 -0.000002 -0.000001 -0.000001 -0.000001 -0.000000 -0.000000 -0.000000 -0.000000 -0.000000 -0.000000 -0.000000 -0.000000 -0.000000 -0.000000 -0.000000 12549.975173 12549.975173 12549.975173 12557.276810 12640.359171 12834.008173 12935.261521 12867.340485 12636.888371 12285.079576 11822.458617 11261.590955 10625.271134 9937.088551 9181.839031 8371.136911 7585.500972 6858.448998 6159.771029 5475.408331 4813.235336 4183.614289 3621.452928 3147.051925 2740.386626 2376.879501 2055.004242 1780.870070 1550.858993 1353.841006 1179.668818 1022.603819 880.413985 752.537394 638.782373 538.728562 451.596432 376.335828 311.768832 256.707470 210.024269 170.682507 137.741705 110.352104 87.746689 69.234495 54.195956 42.079617 32.399283 24.730890 18.708732 14.021030 10.404965 7.641430 5.549717 3.982357 2.820254 1.968220 1.350967 0.909566 0.598385 0.382476 0.235373 0.137270 0.073525 0.033455 0.009374 -0.004162 -0.010949 -0.013578 -0.013784 -0.012693 -0.011014 -0.009174 -0.007409 -0.005840 -0.004511 -0.003424 -0.002560 -0.001888 -0.001375 -0.000990 -0.000705 -0.000497 -0.000347 -0.000240 -0.000164 -0.000112 -0.000075 -0.000050 -0.000033 -0.000022 -0.000014 -0.000009 -0.000006 -0.000004 -0.000002 -0.000001 -0.000001 -0.000001 -0.000000 -0.000000 -0.000000 -0.000000 -0.000000 -0.000000 -0.000000 -0.000000 -0.000000 -0.000000 -0.000000 12549.975173 12549.975173 12549.975173 12557.276810 12640.359171 12834.008173 12935.261521 12867.340485 12636.888371 12285.079576 11822.458617 11261.590955 10625.271134 9937.088551 9181.839031 8371.136911 7585.500972 6858.448998 6159.771029 5475.408331 4813.235336 4183.614289 3621.452928 3147.051925 2740.386626 2376.879501 2055.004242 1780.870070 1550.858993 1353.841006 1179.668818 1022.603819 880.413985 752.537394 638.782373 538.728562 451.596432 376.335828 311.768832 256.707470 210.024269 170.682507 137.741705 110.352104 87.746689 69.234495 54.195956 42.079617 32.399283 24.730890 18.708732 14.021030 10.404965 7.641430 5.549717 3.982357 2.820254 1.968220 1.350967 0.909566 0.598385 0.382476 0.235373 0.137270 0.073525 0.033455 0.009374 -0.004162 -0.010949 -0.013578 -0.013784 -0.012693 -0.011014 -0.009174 -0.007409 -0.005840 -0.004511 -0.003424 -0.002560 -0.001888 -0.001375 -0.000990 -0.000705 -0.000497 -0.000347 -0.000240 -0.000164 -0.000112 -0.000075 -0.000050 -0.000033 -0.000022 -0.000014 -0.000009 -0.000006 -0.000004 -0.000002 -0.000001 -0.000001 -0.000001 -0.000000 -0.000000 -0.000000 -0.000000 -0.000000 -0.000000 -0.000000 -0.000000 -0.000000 -0.000000 -0.000000 12549.975173 12549.975173 12549.975173 12557.276810 12640.359171 12834.008173 12935.261521 12867.340485 12636.888371 12285.079576 11822.458617 11261.590955 10625.271134 9937.088551 9181.839031 8371.136911 7585.500972 6858.448998 6159.771029 5475.408331 4813.235336 4183.614289 3621.452928 3147.051925 2740.386626 2376.879501 2055.004242 1780.870070 1550.858993 1353.841006 1179.668818 1022.603819 880.413985 752.537394 638.782373 538.728562 451.596432 376.335828 311.768832 256.707470 210.024269 170.682507 137.741705 110.352104 87.746689 69.234495 54.195956 42.079617 32.399283 24.730890 18.708732 14.021030 10.404965 7.641430 5.549717 3.982357 2.820254 1.968220 1.350967 0.909566 0.598385 0.382476 0.235373 0.137270 0.073525 0.033455 0.009374 -0.004162 -0.010949 -0.013578 -0.013784 -0.012693 -0.011014 -0.009174 -0.007409 -0.005840 -0.004511 -0.003424 -0.002560 -0.001888 -0.001375 -0.000990 -0.000705 -0.000497 -0.000347 -0.000240 -0.000164 -0.000112 -0.000075 -0.000050 -0.000033 -0.000022 -0.000014 -0.000009 -0.000006 -0.000004 -0.000002 -0.000001 -0.000001 -0.000001 -0.000000 -0.000000 -0.000000 -0.000000 -0.000000 -0.000000 -0.000000 -0.000000 -0.000000 -0.000000 -0.000000 13185.329482 13185.329482 13185.329482 13008.959873 10880.911899 6557.963605 5621.595581 7494.969947 4691.230605 8004.475313 8511.883560 7079.527721 7842.032347 7438.053492 5148.805656 4738.500714 2919.290166 2874.689112 1469.461916 709.147721 3795.818534 528.280200 636.099025 -1544.592664 -3460.807045 -1548.472750 -378.216713 711.555584 1948.982187 479.145484 -1690.193698 -512.817535 1444.945149 2088.793186 -1282.466833 -1551.478378 1085.352182 1296.602445 -1611.127516 -1367.224407 446.471743 1434.900813 -607.677733 -1606.886273 -523.080806 570.918799 1287.861518 -370.089934 -1385.186848 -399.425990 119.720418 -1493.318624 -2330.559472 -1856.152739 -1533.801978 -1345.430928 12995.720125 12995.720125 12995.720125 12748.129052 9871.710703 6394.225692 9631.720254 8730.767041 9938.857919 5310.968679 6916.794895 6617.227137 9523.140801 8978.481590 9049.572285 8591.745541 7408.895906 8252.833930 8387.566495 9515.173102 9823.886620 8622.229687 9589.708201 6904.269484 10437.884639 8373.224448 8141.570629 8382.947768 8838.676573 7063.371673 8070.507847 8548.868746 9233.655487 10346.976847 9727.773943 8332.455634 8593.659177 10768.536677 8141.762824 7701.055341 6922.757147 8455.747236 10548.223026 7889.676957 12286.752767 9611.214949 8103.583722 10350.296685 10089.180883 11875.612955 9746.684407 9351.356534 9084.053925 -202.153283 155.505222 -2107.071319 12884.014128 12884.014128 12884.014128 12756.240791 11209.843094 10875.811652 8966.137481 9988.455171 8896.646909 9617.714193 6335.801624 8618.876453 6484.479570 8574.880468 6724.733808 7429.512995 7962.670515 7813.096457 8683.469009 8568.257601 9605.435185 6275.295110 4643.861564 7424.415607 6573.667445 7287.211049 8176.072351 9740.744236 7634.367967 9951.553949 8667.970098 9030.062347 5428.541381 10438.747526 11708.231233 9995.267924 11243.836012 8994.000791 6163.693874 8857.527199 6494.631622 7938.580036 7739.206401 8276.925063 7753.258610 11901.871936 7196.727673 9948.373959 10921.817786 7731.104320 6873.696501 7811.526032 516.287700 3007.793689 108.290250 136.028169 12907.517517 12907.517517 12907.517517 12618.607085 9784.959766 6600.528731 10044.164758 10800.001789 9509.018302 9189.186379 9058.037826 8432.053744 7978.256875 9368.133022 7976.636180 6752.346118 6842.345106 6682.117527 7724.226776 7485.342278 7542.153193 6208.855229 8561.525027 8244.572251 7425.327582 7597.529401 6434.200094 10020.014514 5875.701956 6434.219962 4865.807979 7338.468529 6290.996180 6865.347457 4884.033558 5240.726900 3981.032469 8230.779289 6722.317809 6859.709668 7869.969460 10337.068968 5805.080802 6798.335288 9471.530079 5652.331261 8084.311529 8672.592316 5164.650459 5290.735014 2394.462333 5162.699659 -1084.247525 2936.440447 -198.363721 947.066934 12979.189810 12979.189810 12979.189810 12853.026687 10534.656088 8022.473484 10660.071720 8527.866285 5332.423413 10038.986598 7311.093649 8788.854431 9032.108787 7937.028598 8053.999993 7154.623680 7785.290832 7207.945672 6780.177151 6631.655874 7293.662854 6975.598456 5714.899306 5854.594608 6222.155747 5616.953773 4971.803467 4706.316687 4262.414848 6667.181615 5850.380295 4174.985760 4945.687726 6436.105118 4143.474841 4179.631778 6952.389353 6109.920906 3785.626403 5003.522010 6633.537416 3970.285967 6192.525443 5108.912835 3998.589406 2655.075132 6343.846646 4273.508588 4434.539582 2871.638268 5356.342872 835.824919 841.785103 1660.421369 1828.0