<VTKFile type="PolyData">
<PolyData>
<Piece NumberOfPoints="8632" NumberOfVerts="8632" NumberOfLines="0" NumberOfStrips="0" NumberOfPolys="0">
<PointData>
<DataArray type="Float64" Name="Pressure" format="ascii">
 0.377488 0.377488 0.377488 0.592760 3.032527 7.758481 8.358057 5.441496 2.573871 1.045838 0.399168 0.154408 0.072085 0.046559 0.039146 0.037145 0.036640 0.036519 0.036492 0.036486 0.036485 0.036484 0.036484 0.036484 0.036484 0.036484 0.036484 0.036484 0.036484 0.036484 0.036484 0.036484 0.036484 0.036484 0.036484 0.036484 0.036484 0.036484 0.036484 0.036484 0.036484 0.036484 0.036484 0.036485 0.036485 0.036487 0.036495 0.036525 0.036634 0.037076 0.038738 0.034704 -0.086533 -0.877112 -3.118597 -5.577719 -5.154918 -2.550488 -0.724162 -0.127326 -0.014661 -0.001134 -0.000057 -0.000002 -0.000000 -0.000000 -0.000000 -0.000000 -0.000000 -0.000000 -0.000000 -0.000000 -0.000000 -0.000000 -0.000000 -0.000000 -0.000000 -0.000000 -0.000000 -0.000000 -0.000000 -0.000000 -0.000000 -0.000000 -0.000000 -0.000000 -0.000000 -0.000000 -0.000000 -0.000000 -0.000000 -0.000000 -0.000000 -0.000000 -0.000000 -0.000000 -0.000000 -0.000000 -0.000000 -0.000000 -0.000000 -0.000000 -0.000000 -0.000000 -0.000000 -0.000000 -0.000000 -0.000000 -0.000000 -0.000000 -0.000000 0.377488 0.377488 0.377488 0.592760 3.032527 7.758481 8.358057 5.441496 2.573871 1.045838 0.399168 0.154408 0.072085 0.046559 0.039146 0.037145 0.036640 0.036519 0.036492 0.036486 0.036485 0.036484 0.036484 0.036484 0.036484 0.036484 0.036484 0.036484 0.036484 0.036484 0.036484 0.036484 0.036484 0.036484 0.036484 0.036484 0.036484 0.036484 0.036484 0.036484 0.036484 0.036484 0.036484 0.036485 0.036485 0.036487 0.036495 0.036525 0.036634 0.037076 0.038738 0.034704 -0.086533 -0.877112 -3.118597 -5.577719 -5.154918 -2.550488 -0.724162 -0.127326 -0.014661 -0.001134 -0.000057 -0.000002 -0.000000 -0.000000 -0.000000 -0.000000 -0.000000 -0.000000 -0.000000 -0.000000 -0.000000 -0.000000 -0.000000 -0.000000 -0.000000 -0.000000 -0.000000 -0.000000 -0.000000 -0.000000 -0.000000 -0.000000 -0.000000 -0.000000 -0.000000 -0.000000 -0.000000 -0.000000 -0.000000 -0.000000 -0.000000 -0.000000 -0.000000 -0.000000 -0.000000 -0.000000 -0.000000 -0.000000 -0.000000 -0.000000 -0.000000 -0.000000 -0.000000 -0.000000 -0.000000 -0.000000 -0.000000 -0.000000 -0.000000 0.377488 0.377488 0.377488 0.592760 3.032527 7.758481 8.358057 5.441496 2.573871 1.045838 0.399168 0.154408 0.072085 0.046559 0.039146 0.037145 0.036640 0.036519 0.036492 0.036486 0.036485 0.036484 0.036484 0.036484 0.036484 0.036484 0.036484 0.036484 0.036484 0.036484 0.036484 0.036484 0.036484 0.036484 0.036484 0.036484 0.036484 0.036484 0.036484 0.036484 0.036484 0.036484 0.036484 0.036485 0.036485 0.036487 0.036495 0.036525 0.036634 0.037076 0.038738 0.034704 -0.086533 -0.877112 -3.118597 -5.577719 -5.154918 -2.550488 -0.724162 -0.127326 -0.014661 -0.001134 -0.000057 -0.000002 -0.000000 -0.000000 -0.000000 -0.000000 -0.000000 -0.000000 -0.000000 -0.000000 -0.000000 -0.000000 -0.000000 -0.000000 -0.000000 -0.000000 -0.000000 -0.000000 -0.000000 -0.000000 -0.000000 -0.000000 -0.000000 -0.000000 -0.000000 -0.000000 -0.000000 -0.000000 -0.000000 -0.000000 -0.000000 -0.000000 -0.000000 -0.000000 -0.000000 -0.000000 -0.000000 -0.000000 -0.000000 -0.000000 -0.000000 -0.000000 -0.000000 -0.000000 -0.000000 -0.000000 -0.000000 -0.000000 -0.000000 0.744148 0.744148 0.744148 1.201565 6.683833 18.328284 19.604672 12.405829 6.200883 2.700395 1.089251 0.436903 0.197397 0.116623 0.091424 0.084092 0.082093 0.081582 0.081458 0.081429 0.081423 0.081422 0.081421 0.081421 0.081421 0.081421 0.081421 0.081421 0.081421 0.081421 0.081421 0.081421 0.081421 0.081421 0.081421 0.081421 0.081421 0.081421 0.081421 0.081421 0.081421 0.081421 0.081422 0.081422 0.081424 0.081431 0.081459 0.081552 0.081845 0.082857 0.086957 0.091353 -0.069477 -1.479846 -6.325479 -12.899584 -11.513770 -5.221274 -1.338815 -0.217792 -0.023641 -0.001763 -0.000089 -0.000003 -0.000000 -0.000000 -0.000000 0.000000 -0.000000 0.000000 0.000000 -0.000000 0.000000 -0.000000 0.000000 0.000000 -0.000000 0.000000 0.000000 -0.000000 0.000000 -0.000000 0.000000 0.000000 -0.000000 0.000000 -0.000000 0.000000 0.000000 -0.000000 0.000000 0.000000 -0.000000 0.000000 -0.000000 0.000000 0.000000 -0.000000 0.000000 -0.000000 0.000000 0.000000 -0.000000 0.000000 0.000000 0.000000 0.000000 -0.000000 -0.000000 -0.000000 -0.000000 6.766436 6.766436 6.766436 11.870879 83.648546 244.102592 257.761947 165.056588 91.182543 46.775544 21.410875 9.612743 4.585873 2.606052 1.899208 1.665314 1.592792 1.571744 1.565995 1.564508 1.564142 1.564057 1.564038 1.564034 1.564033 1.564033 1.564033 1.564033 1.564033 1.564033 1.564033 1.564033 1.564033 1.564033 1.564033 1.564033 1.564033 1.564033 1.564033 1.564033 1.564033 1.564034 1.564039 1.564058 1.564129 1.564374 1.565138 1.567254 1.572361 1.581074 1.601343 1.820853 2.424369 -4.650804 -58.722915 -152.597128 -135.066458 -47.871563 -9.443763 -1.239734 -0.119121 -0.008275 -0.000410 -0.000014 -0.000000 -0.000000 -0.000000 -0.000000 0.000000 -0.000000 -0.000000 -0.000000 -0.000000 0.000000 -0.000000 -0.000000 0.000000 -0.000000 -0.000000 -0.000000 -0.000000 0.000000 -0.000000 -0.000000 -0.000000 -0.000000 0.000000 -0.000000 -0.000000 0.000000 -0.000000 -0.000000 -0.000000 -0.000000 0.000000 -0.000000 -0.000000 -0.000000 -0.000000 0.000000 -0.000000 -0.000000 0.000000 -0.000000 -0.000000 0.000000 0.000000 -0.000000 -0.000000 -0.000000 -0.000000 20.360748 20.360748 20.360748 38.273190 318.529232 1237.816356 1243.611827 714.884375 529.252080 280.578846 145.328897 69.845505 30.759667 13.599078 6.589572 3.928011 3.000759 2.698960 2.606504 2.579878 2.572637 2.570767 2.570308 2.570201 2.570177 2.570172 2.570171 2.570171 2.570171 2.570171 2.570171 2.570171 2.570171 2.570171 2.570171 2.570171 2.570171 2.570171 2.570171 2.570172 2.570178 2.570201 2.570284 2.570572 2.571483 2.574132 2.581257 2.596616 2.616144 2.621527 2.434235 1.792308 7.875836 28.367250 -112.815524 -806.907383 -849.685429 -176.759309 -25.813445 -3.091332 -0.280372 -0.019254 -0.000962 -0.000034 -0.000001 -0.000000 0.000000 0.000000 0.000000 0.000000 0.000000 0.000000 0.000000 0.000000 0.000000 0.000000 0.000000 0.000000 0.000000 0.000000 0.000000 0.000000 0.000000 0.000000 0.000000 0.000000 0.000000 0.000000 0.000000 0.000000 0.000000 0.000000 0.000000 0.000000 0.000000 0.000000 0.000000 0.000000 0.000000 0.000000 0.000000 0.000000 0.000000 0.000000 0.000000 0.000000 0.000000 -0.000000 -0.000000 -0.000000 -0.000000 -0.000000 -0.000000 -0.000000 -0.000000 -0.000000 -0.000000 -0.000000 -0.000000 -0.000000 -0.000000 -0.000000 -0.000000 -0.000000 -0.000000 -0.000000 -0.000000 -0.000000 -0.000000 -0.000000 -0.000000 -0.000000 0.000000 0.000000 0.000000 -0.000000 -0.000000 0.000000 0.000000 0.000000 0.000000 -0.000000 -0.000000 0.000000 0.000000 0.000000 0.000000 -0.000000 -0.000000 0.000000 0.000000 0.000000 0.000000 -0.000000 -0.000000 0.000000 0.000000 0.000000 0.000000 -0.000000 -0.000000 0.000000 0.000000 0.000000 0.000000 -0.000000 -0.000000 -0.000000 -0.000000 -0.000000 -0.000000 -0.000000 -0.000000 -0.000000 -0.000000 -0.000000 -0.000000 -0.000000 -0.000000 -0.000000 -0.000000 -0.000000 -0.000000 -0.000000 -0.000000 -0.000000 -0.000000 -0.000000 -0.000000 -0.000000 -0.000000 -0.000000 -0.000000 -0.000000 -0.000000 -0.000000 -0.000000 -0.000000 -0.000000 -0.000000 -0.000000 -0.000000 -0.000000 -0.000000 -0.000000 -0.000000 -0.000000 -0.000000 -0.000000 -0.000000 -0.000000 -0.000000 -0.000000 -0.000000 -0.000000 -0.000000 -0.000000 -0.000000 -0.000000 -0.000000 -0.000000 -0.000000 -0.000000 -0.000000 -0.000000 -0.000000 -0.000000 -0.000000 -0.000000 -0.000000 -0.000000 -0.000000 -0.000000 -0.000000 -0.000000 -0.000000 -0.000000 -0.000000 -0.000000 -0.000000 -0.000000 -0.000000 -0.000000 -0.000000 -0.000000 -0.000000 -0.000000 -0.000000 -0.000000 -0.000000 -0.000000 -0.000000 -0.000000 -0.000000 -0.000000 -0.000000 -0.000000 -0.000000 -0.000000 -0.000000 -0.000000 -0.000000 -0.000000 -0.000000 -0.000000 -0.000000 -0.000000 -0.000000 -0.000000 -0.000000 -0.000000 -0.000000 -0.000000 -0.000000 -0.000000 -0.000000 -0.000000 -0.000000 -0.000000 -0.000000 -0.000000 -0.000000 -0.000000 -0.000000 -0.000000 -0.000000 -0.000000 -0.000000 -0.000000 -0.000000 -0.000000 -0.000000 -0.000000 -0.000000 -0.000000 -0.000000 -0.000000 -0.000000 -0.000000 -0.000000 -0.000000 -0.000000 -0.000000 -0.000000 -0.000000 -0.000000 -0.000000 -0.000000 -0.000000 -0.000000 -0.000000 -0.000000 -0.000000 -0.000000 -0.000000 -0.000000 -0.000000 -0.000000 -0.000000 -0.000000 -0.000000 -0.000000 -0.000000 -0.000000 -0.000000 -0.000000 -0.000000 -0.000000 -0.000000 -0.000000 -0.000000 -0.000000 -0.000000 -0.000000 -0.000000 -0.000000 -0.000000 -0.000000 -0.000000 -0.000000 -0.000000 -0.000000 -0.000000 -0.000000 -0.000000 -0.000000 -0.000000 -0.000000 -0.000000 -0.000000 -0.000000 0.000000 -0.000000 -0.000000 0.000000 0.000000 0.000000 -0.000000 -0.000000 -0.000000 0.000000 0.000000 0.000000 -0.000000 -0.000000 -0.000000 0.000000 0.000000 0.000000 -0.000000 -0.000000 -0.000000 0.000000 0.000000 0.000000 -0.000000 -0.000000 -0.000000 0.000000 0.000000 0.000000 -0.000000 -0.000000 -0.000000 0.000000 0.000000 0.000000 -0.000000 -0.000000 -0.000000 0.000000 0.000000 0.000000 -0.000000 -0.000000 -0.000000 0.000000 0.000000 0.000000 -0.000000 -0.000000 -0.000000 0.000000 0.000000 0.000000 -0.000000 -0.000000 -0.000000 0.000000 0.000000 0.000000 -0.000000 -0.000000 -0.000000 0.000000 0.000000 0.000000 -0.000000 -0.000000 -0.000000 0.000000 0.000000 0.000000 -0.000000 -0.000000 -0.000000 0.000000 0.000000 0.000000 -0.000000 -0.000000 -0.000000 0.000000 0.000000 0.000000 -0.000000 -0.000000 -0.000000 0.000000 0.000000 0.000000 -0.000000 -0.000000 -0.000000 0.000000 0.000000 0.000000 -0.000000 -0.000000 -0.000000 0.000000 0.000000 0.000000 -0.000000 -0.000000 -0.000000 0.000000 0.000000 0.000000 -0.000000 -0.000000 -0.000000 0.000000 0.000000 0.000000 -0.000000 -0.000000 -0.000000 0.000000 0.000000 0.000000 -0.000000 -0.000000 -0.000000 0.000000 0.000000 0.000000 -0.000000 -0.000000 -0.000000 0.000000 0.000000 0.000000 -0.000000 -0.000000 -0.000000 0.000000 0.000000 0.000000 -0.000000 -0.000000 -0.000000 0.000000 0.000000 0.000000 -0.000000 -0.000000 -0.000000 0.000000 0.000000 0.000000 -0.000000 -0.000000 -0.000000 0.000000 0.000000 0.000000 -0.000000 -0.000000 -0.000000 0.000000 0.000000 0.000000 -0.000000 -0.000000 -0.000000 0.000000 0.000000 0.000000 -0.000000 -0.000000 -0.000000 0.000000 0.000000 0.000000 -0.000000 -0.000000 -0.000000 0.000000 0.000000 0.000000 -0.000000 -0.000000 -0.000000 0.000000 0.000000 0.000000 -0.000000 -0.000000 -0.000000 0.000000 0.000000 0.000000 -0.000000 -0.000000 -0.000000 0.000000 0.000000 0.000000 -0.000000 -0.000000 -0.000000 0.000000 0.000000 0.000000 -0.000000 -0.000000 -0.000000 0.000000 0.000000 0.000000 -0.000000 -0.000000 -0.000000 0.000000 0.000000 0.000000 -0.000000 -0.000000 -0.000000 0.000000 0.000000 0.000000 -0.000000 -0.000000 -0.000000 0.000000 0.000000 0.000000 -0.000000 -0.000000 -0.000000 0.000000 0.000000 0.000000 -0.000000 -0.000000 -0.000000 0.000000 0.000000 0.000000 -0.000000 -0.000000 -0.000000 0.000000 0.000000 0.000000 -0.000000 -0.000000 -0.000000 0.000000 0.000000 0.000000 -0.000000 -0.000000 -0.000000 0.000000 0.000000 0.000000 -0.000000 -0.000000 -0.000000 0.000000 0.000000 0.000000 -0.000000 -0.000000 -0.000000 0.000000 0.000000 0.000000 -0.000000 -0.000000 -0.000000 0.000000 0.000000 0.000000 -0.000000 -0.000000 -0.000000 0.000000 0.000000 0.000000 -0.000000 -0.000000 -0.000000 0.000000 0.000000 0.000000 -0.000000 -0.000000 -0.000000 0.000000 0.000000 0.000000 -0.000000 -0.000000 -0.000000 0.000000 0.000000 0.000000 -0.000000 -0.000000 -0.000000 0.000000 0.000000 0.000000 -0.000000 -0.000000 -0.000000 0.000000 0.000000 0.000000 -0.000000 -0.000000 -0.000000 0.000000 0.000000 0.000000 -0.000000 -0.000000 -0.000000 0.000000 0.000000 0.000000 -0.000000 -0.000000 -0.000000 0.000000 0.000000 0.000000 -0.000000 -0.000000 -0.000000 0.000000 0.000000 0.000000 -0.000000 -0.000000 -0.000000 0.000000 0.000000 0.000000 -0.000000 -0.000000 -0.000000 0.000000 0.000000 0.000000 -0.000000 -0.000000 -0.000000 0.000000 0.000000 0.000000 -0.000000 -0.000000 -0.000000 0.000000 0.000000 0.000000 -0.000000 -0.000000 -0.000000 0.000000 0.000000 0.000000 -0.000000 -0.000000 -0.000000 0.000000 0.000000 0.000000 -0.000000 -0.000000 -0.000000 0.000000 0.000000 0.000000 -0.000000 -0.000000 -0.000000 0.000000 0.000000 0.000000 -0.000000 -0.000000 -0.000000 0.000000 0.000000 0.000000 -0.000000 -0.000000 -0.000000 0.000000 0.000000 0.000000 -0.000000 -0.000000 -0.000000 0.000000 0.000000 0.000000 -0.000000 -0.000000 -0.000000 0.000000 0.000000 0.000000 -0.000000 -0.000000 -0.000000 0.000000 0.000000 0.000000 -0.000000 -0.000000 -0.000000 0.000000 0.000000 0.000000 -0.000000 -0.000000 -0.000000 0.000000 0.000000 0.000000 -0.000000 -0.000000 -0.000000 0.000000 0.000000 0.000000 -0.000000 -0.000000 -0.000000 0.000000 0.000000 0.000000 -0.000000 -0.000000 -0.000000 0.000000 0.000000 0.000000 -0.000000 -0.000000 -0.000000 0.000000 0.000000 0.000000 -0.000000 -0.000000 -0.000000 0.000000 0.000000 0.000000 -0.000000 -0.000000 -0.000000 0.000000 0.000000 0.000000 -0.000000 -0.000000 -0.000000 0.000000 0.000000 0.000000 -0.000000 -0.000000 -0.000000 0.000000 0.000000 0.000000 -0.000000 -0.000000 -0.000000 0.000000 0.000000 0.000000 -0.000000 -0.000000 -0.000000 0.000000 0.000000 0.000000 -0.000000 -0.000000 -0.000000 0.000000 0.000000 0.000000 -0.000000 -0.000000 -0.000000 0.000000 0.000000 0.000000 -0.000000 -0.000000 -0.000000 0.000000 0.000000 0.000000 -0.000000 -0.000000 -0.000000 0.000000 0.000000 0.000000 -0.000000 -0.000000 -0.000000 0.000000 0.000000 0.000000 -0.000000 -0.000000 -0.000000 0.000000 0.000000 0.000000 -0.000000 -0.000000 -0.000000 0.000000 0.000000 0.000000 -0.000000 -0.000000 -0.000000 0.000000 0.000000 0.000000 -0.000000 -0.000000 -0.000000 0.000000 0.000000 0.000000 -0.000000 -0.000000 -0.000000 0.000000 0.000000 0.000000 -0.000000 -0.000000 -0.000000 0.000000 0.000000 0.000000 -0.000000 -0.000000 -0.000000 0.000000 0.000000 0.000000 -0.000000 -0.000000 -0.000000 0.000000 0.000000 0.000000 -0.000000 -0.000000 -0.000000 0.000000 0.000000 0.000000 -0.000000 -0.000000 -0.000000 0.000000 0.000000 0.000000 -0.000000 -0.000000 -0.000000 0.000000 0.000000 0.000000 -0.000000 -0.000000 -0.000000 0.000000 0.000000 0.000000 -0.000000 -0.000000 -0.000000 0.000000 0.000000 0.000000 -0.000000 -0.000000 -0.000000 0.000000 0.000000 0.000000 -0.000000 -0.000000 -0.000000 0.000000 0.000000 0.000000 -0.000000 -0.000000 -0.000000 0.000000 0.000000 0.000000 -0.000000 -0.000000 -0.000000 0.000000 0.000000 0.000000 -0.000000 -0.000000 -0.000000 0.000000 0.000000 0.000000 -0.000000 -0.000000 -0.000000 0.000000 0.000000 0.000000 -0.000000 -0.000000 -0.000000 0.000000 0.000000 0.000000 -0.000000 -0.000000 -0.000000 0.000000 0.000000 0.000000 -0.000000 -0.000000 -0.000000 0.000000 0.000000 0.000000 -0.000000 -0.000000 -0.000000 0.000000 0.000000 0.000000 -0.000000 -0.000000 -0.000000 0.000000 0.000000 0.000000 -0.000000 -0.000000 -0.000000 0.000000 0.000000 0.000000 -0.000000 -0.000000 -0.000000 0.000000 0.000000 0.000000 -0.000000 -0.000000 -0.000000 0.000000 0.000000 0.000000 -0.000000 -0.000000 -0.000000 0.000000 0.000000 0.000000 -0.000000 -0.000000 -0.000000 0.000000 0.000000 0.000000 -0.000000 -0.000000 -0.000000 0.000000 0.000000 0.000000 -0.000000 -0.000000 -0.000000 0.000000 0.000000 0.000000 -0.000000 -0.000000 -0.000000 0.000000 0.000000 0.000000 -0.000000 -0.000000 -0.000000 0.000000 0.000000 0.000000 -0.000000 -0.000000 -0.000000 0.000000 0.000000 0.000000 -0.000000 -0.000000 -0.000000 -0.000000 -0.000000 -0.000000 -0.000000 -0.000000 -0.000000 -0.000000 -0.000000 -0.000000 -0.000000 -0.000000 -0.000000 -0.000000 -0.000000 -0.000000 0.000000 -0.000000 -0.000000 -0.000000 -0.000000 -0.000000 0.000000 -0.000000 -0.000000 -0.000000 -0.000000 -0.000000 0.000000 -0.000000 -0.000000 -0.000000 -0.000000 -0.000000 0.000000 -0.000000 -0.000000 -0.000000 -0.000000 -0.000000 0.000000 -0.000000 -0.000000 -0.000000 -0.000000 -0.000000 0.000000 -0.000000 -0.000000 -0.000000 -0.000000 -0.000000 0.000000 -0.000000 -0.000000 -0.000000 -0.000000 -0.000000 0.000000 -0.000000 -0.000000 -0.000000 -0.000000 -0.000000 0.000000 -0.000000 -0.000000 -0.000000 -0.000000 -0.000000 0.000000 -0.000000 -0.000000 -0.000000 -0.000000 -0.000000 0.000000 -0.000000 -0.000000 -0.000000 -0.000000 -0.000000 0.000000 -0.000000 -0.000000 -0.000000 -0.000000 -0.000000 0.000000 -0.000000 -0.000000 -0.000000 -0.000000 -0.000000 0.000000 -0.000000 -0.000000 -0.000000 -0.000000 -0.000000 0.000000 -0.000000 -0.000000 -0.000000 -0.000000 -0.000000 0.000000 -0.000000 -0.000000 -0.000000 -0.000000 -0.000000 0.000000 -0.000000 -0.000000 -0.000000 -0.000000 -0.000000 0.000000 -0.000000 -0.000000 -0.000000 -0.000000 -0.000000 0.000000 -0.000000 -0.000000 -0.000000 -0.000000 -0.000000 0.000000 -0.000000 -0.000000 -0.000000 -0.000000 -0.000000 0.000000 -0.000000 -0.000000 -0.000000 -0.000000 -0.000000 0.000000 -0.000000 -0.000000 -0.000000 -0.000000 -0.000000 0.000000 -0.000000 -0.000000 -0.000000 -0.000000 -0.000000 0.000000 -0.000000 -0.000000 -0.000000 -0.000000 -0.000000 0.000000 -0.000000 -0.000000 -0.000000 -0.000000 -0.000000 0.000000 -0.000000 -0.000000 -0.000000 -0.000000 -0.000000 0.000000 -0.000000 -0.000000 -0.000000 -0.000000 -0.000000 0.000000 -0.000000 -0.000000 -0.000000 -0.000000 -0.000000 0.000000 -0.000000 -0.000000 -0.000000 -0.000000 -0.000000 0.000000 -0.000000 -0.000000 -0.000000 -0.000000 -0.000000 0.000000 -0.000000 -0.000000 -0.000000 -0.000000 -0.000000 0.000000 -0.000000 -0.000000 -0.000000 -0.000000 -0.000000 0.000000 -0.000000 -0.000000 -0.000000 -0.000000 -0.000000 0.000000 -0.000000 -0.000000 -0.000000 -0.000000 -0.000000 0.000000 -0.000000 -0.000000 -0.000000 -0.000000 -0.000000 0.000000 -0.000000 -0.000000 -0.000000 -0.000000 -0.000000 -0.000000 -0.000000 0.000000 0.000000 0.000000 0.000000 26.624240 26.624240 26.624240 51.133333 488.950116 2200.927977 2715.773282 1701.627554 1092.086461 566.228848 282.671432 134.741385 62.222487 31.154457 18.781916 14.168238 12.549076 11.925002 11.433197 10.449142 8.059043 2.787272 -5.685729 0.107656 -84.734610 -1112.342778 -1283.142779 -291.553439 -43.007367 -5.319770 -0.495157 -0.034933 -0.001788 -0.000064 -0.000001 -0.000000 -0.000000 -0.000000 -0.000000 -0.000000 -0.000000 -0.000000 -0.000000 -0.000000 -0.000000 -0.000000 -0.000000 -0.000000 -0.000000 -0.000000 -0.000000 -0.000000 -0.000000 -0.000000 -0.000000 -0.000000 -0.000000 -0.000000 -0.000000 -0.000000 -0.000000 -0.000000 -0.000000 -0.000000 -0.000000 -0.000000 -0.000000 -0.000000 -0.000000 -0.000000 -0.000000 -0.000000 -0.000000 -0.000000 -0.000000 -0.000000 -0.000000 -0.000000 -0.000000 -0.000000 -0.000000 -0.000000 -0.000000 -0.000000 -0.000000 -0.000000 -0.000000 -0.000000 -0.000000 -0.000000 -0.000000 -0.000000 -0.000000 -0.000000 -0.000000 -0.000000 -0.000000 -0.000000 -0.000000 -0.000000 -0.000000 -0.000000 -0.000000 -0.000000 -0.000000 -0.000000 -0.000000 0.000000 -0.000000 -0.000000 -0.000000 7.462404 7.462404 7.462404 13.647023 102.258787 383.310248 509.569699 338.663393 186.931509 90.467235 40.912990 17.609761 7.559692 3.597835 2.144988 1.647321 1.485076 1.425490 1.374227 1.257056 0.940847 0.204412 -1.099304 -6.121560 -42.961377 -186.446906 -218.025119 -83.715602 -17.705784 -2.414040 -0.240333 -0.017220 -0.000880 -0.000030 -0.000001 -0.000000 -0.000000 -0.000000 -0.000000 -0.000000 -0.000000 -0.000000 -0.000000 -0.000000 -0.000000 -0.000000 -0.000000 -0.000000 0.000000 -0.000000 -0.000000 0.000000 -0.000000 -0.000000 -0.000000 -0.000000 0.000000 -0.000000 -0.000000 -0.000000 -0.000000 0.000000 -0.000000 -0.000000 0.000000 -0.000000 -0.000000 -0.000000 -0.000000 0.000000 -0.000000 -0.000000 -0.000000 -0.000000 0.000000 -0.000000 -0.000000 0.000000 -0.000000 -0.000000 -0.000000 -0.000000 0.000000 -0.000000 -0.000000 -0.000000 -0.000000 0.000000 -0.000000 -0.000000 0.000000 -0.000000 -0.000000 -0.000000 -0.000000 0.000000 -0.000000 -0.000000 -0.000000 -0.000000 0.000000 -0.000000 -0.000000 0.000000 -0.000000 -0.000000 -0.000000 -0.000000 -0.000000 -0.000000 -0.000000 0.889355 0.889355 0.889355 1.504254 9.711483 29.589333 35.417091 24.232254 12.275206 5.309363 2.082642 0.795511 0.320233 0.157835 0.106700 0.091598 0.087323 0.085856 0.084163 0.079180 0.064036 0.018078 -0.198112 -1.527780 -7.331942 -17.786816 -19.104889 -9.397905 -2.495006 -0.416591 -0.045824 -0.003463 -0.000177 -0.000006 -0.000000 -0.000000 -0.000000 -0.000000 -0.000000 -0.000000 -0.000000 -0.000000 -0.000000 -0.000000 -0.000000 -0.000000 -0.000000 -0.000000 -0.000000 -0.000000 -0.000000 -0.000000 -0.000000 -0.000000 -0.000000 -0.000000 -0.000000 -0.000000 -0.000000 -0.000000 -0.000000 -0.000000 -0.000000 -0.000000 -0.000000 -0.000000 -0.000000 -0.000000 -0.000000 -0.000000 -0.000000 -0.000000 -0.000000 -0.000000 -0.000000 -0.000000 -0.000000 -0.000000 -0.000000 -0.000000 -0.000000 -0.000000 -0.000000 -0.000000 -0.000000 -0.000000 -0.000000 -0.000000 -0.000000 -0.000000 -0.000000 -0.000000 -0.000000 -0.000000 -0.000000 -0.000000 -0.000000 -0.000000 -0.000000 -0.000000 -0.000000 -0.000000 -0.000000 -0.000000 -0.000000 -0.000000 -0.000000 0.000000 0.000000 0.000000 0.000000 0.301115 0.301115 0.301115 0.493232 2.839005 8.116791 9.631900 6.649700 3.245074 1.315512 0.481806 0.171708 0.066081 0.032599 0.022702 0.019948 0.019211 0.018964 0.018651 0.017650 0.014168 -0.001369 -0.100825 -0.652216 -2.519046 -5.274745 -5.579164 -3.020305 -0.909560 -0.168419 -0.020191 -0.001609 -0.000083 -0.000003 -0.000000 -0.000000 -0.000000 -0.000000 -0.000000 -0.000000 -0.000000 -0.000000 -0.000000 -0.000000 -0.000000 -0.000000 -0.000000 -0.000000 -0.000000 -0.000000 -0.000000 -0.000000 -0.000000 -0.000000 -0.000000 -0.000000 -0.000000 -0.000000 -0.000000 -0.000000 -0.000000 -0.000000 -0.000000 -0.000000 -0.000000 -0.000000 -0.000000 -0.000000 -0.000000 -0.000000 -0.000000 -0.000000 -0.000000 -0.000000 -0.000000 -0.000000 -0.000000 -0.000000 -0.000000 -0.000000 -0.000000 -0.000000 -0.000000 -0.000000 -0.000000 -0.000000 -0.000000 -0.000000 -0.000000 -0.000000 -0.000000 -0.000000 -0.000000 -0.000000 -0.000000 -0.000000 -0.000000 -0.000000 -0.000000 -0.000000 -0.000000 -0.000000 -0.000000 -0.000000 -0.000000 -0.000000 0.000000 0.000000 0.000000 0.000000 0.000000 0.301115 0.301115 0.301115 0.493232 2.839005 8.116791 9.631900 6.649700 3.245074 1.315512 0.481806 0.171708 0.066081 0.032599 0.022702 0.019948 0.019211 0.018964 0.018651 0.017650 0.014168 -0.001369 -0.100825 -0.652216 -2.519046 -5.274745 -5.579164 -3.020305 -0.909560 -0.168419 -0.020191 -0.001609 -0.000083 -0.000003 -0.000000 -0.000000 -0.000000 -0.000000 -0.000000 -0.000000 -0.000000 -0.000000 -0.000000 -0.000000 -0.000000 -0.000000 -0.000000 -0.000000 -0.000000 -0.000000 -0.000000 -0.000000 -0.000000 -0.000000 -0.000000 -0.000000 -0.000000 -0.000000 -0.000000 -0.000000 -0.000000 -0.000000 -0.000000 -0.000000 -0.000000 -0.000000 -0.000000 -0.000000 -0.000000 -0.000000 -0.000000 -0.000000 -0.000000 -0.000000 -0.000000 -0.000000 -0.000000 -0.000000 -0.000000 -0.000000 -0.000000 -0.000000 -0.000000 -0.000000 -0.000000 -0.000000 -0.000000 -0.000000 -0.000000 -0.000000 -0.000000 -0.000000 -0.000000 -0.000000 -0.000000 -0.000000 -0.000000 -0.000000 -0.000000 -0.000000 -0.000000 -0.000000 -0.000000 -0.000000 -0.000000 -0.000000 0.000000 0.000000 0.000000 0.000000 0.000000 0.301115 0.301115 0.301115 0.493232 2.839005 8.116791 9.631900 6.649700 3.245074 1.315512 0.481806 0.171708 0.066081 0.032599 0.022702 0.019948 0.019211 0.018964 0.018651 0.017650 0.014168 -0.001369 -0.100825 -0.652216 -2.519046 -5.274745 -5.579164 -3.020305 -0.909560 -0.168419 -0.020191 -0.001609 -0.000083 -0.000003 -0.000000 -0.000000 -0.000000 -0.000000 -0.000000 -0.000000 -0.000000 -0.000000 -0.000000 -0.000000 -0.000000 -0.000000 -0.000000 -0.000000 -0.000000 -0.000000 -0.000000 -0.000000 -0.000000 -0.000000 -0.000000 -0.000000 -0.000000 -0.000000 -0.000000 -0.000000 -0.000000 -0.000000 -0.000000 -0.000000 -0.000000 -0.000000 -0.000000 -0.000000 -0.000000 -0.000000 -0.000000 -0.000000 -0.000000 -0.000000 -0.000000 -0.000000 -0.000000 -0.000000 -0.000000 -0.000000 -0.000000 -0.000000 -0.000000 -0.000000 -0.000000 -0.000000 -0.000000 -0.000000 -0.000000 -0.000000 -0.000000 -0.000000 -0.000000 -0.000000 -0.000000 -0.000000 -0.000000 -0.000000 -0.000000 -0.000000 -0.000000 -0.000000 -0.000000 -0.000000 -0.000000 -0.000000 0.000000 0.000000 0.000000 0.000000 0.000000 23.084409 23.084409 23.084409 43.837459 396.928278 1611.505632 1609.655557 907.483886 699.219835 379.569960 202.116835 102.051637 48.867198 25.120510 15.293908 11.508259 10.172351 9.732861 9.596843 9.557296 9.546448 9.543625 9.542927 9.542763 9.542726 9.542718 9.542716 9.542716 9.542716 9.542716 9.542716 9.542716 9.542716 9.542716 9.542716 9.542716 9.542716 9.542716 9.542716 9.542719 9.542727 9.542761 9.542884 9.543306 9.544623 9.548397 9.558366 9.578852 9.602420 9.609624 9.324994 8.099493 15.082635 41.281214 -148.447856 -1095.401927 43.219090 43.219090 43.219090 84.526964 953.207599 4162.799933 4229.542166 2301.339478 1851.779304 1052.446113 559.916892 283.634452 130.385897 59.466441 29.542106 17.737239 13.474271 12.046354 11.596877 11.464010 11.427025 11.417272 11.414829 11.414247 11.414114 11.414086 11.414080 11.414079 11.414078 11.414078 11.414078 11.414078 11.414078 11.414078 11.414078 11.414078 11.414078 11.414079 11.414080 11.414086 11.414111 11.414207 11.414556 11.415738 11.419379 11.429653 11.456249 11.508984 11.570849 11.660483 11.255945 6.298552 -1.650667 -2.870924 33.694638 649.736325 64.599233 64.599233 64.599233 125.637099 1294.397901 5414.674922 5233.855909 2628.212348 2364.626420 1319.808401 703.268210 361.172602 162.585968 69.535402 29.874078 13.956410 8.130746 6.158244 5.530279 5.342664 5.289948 5.275923 5.272380 5.271530 5.271335 5.271292 5.271283 5.271281 5.271281 5.271281 5.271281 5.271281 5.271281 5.271281 5.271281 5.271281 5.271281 5.271282 5.271283 5.271292 5.271324 5.271449 5.271896 5.273397 5.277981 5.290763 5.323866 5.390740 5.466771 5.563739 5.391291 1.937931 -4.517749 -36.778549 -208.655543 -115.227233 71.746978 71.746978 71.746978 137.432460 1330.951758 5306.973445 4865.427466 2493.031665 2397.706177 1332.215017 732.561454 385.598098 174.431403 74.061459 30.490838 12.662086 6.046466 3.779351 3.049114 2.828712 2.766228 2.749466 2.745200 2.744168 2.743931 2.743878 2.743867 2.743865 2.743865 2.743865 2.743865 2.743865 2.743865 2.743865 2.743865 2.743865 2.743865 2.743865 2.743867 2.743875 2.743908 2.744032 2.744470 2.745928 2.750345 2.762484 2.793755 2.860990 2.949462 3.047798 3.049004 0.927730 0.105216 19.827459 4.918393 2.473526 73.190509 73.190509 73.190509 139.603412 1343.842179 5382.120282 5052.708911 2699.902488 2526.791198 1405.549991 783.770450 413.182762 186.804909 78.975856 31.725154 12.246231 4.979353 2.474062 1.662358 1.416121 1.345979 1.327076 1.322244 1.321071 1.320800 1.320740 1.320728 1.320725 1.320725 1.320724 1.320724 1.320724 1.320724 1.320724 1.320724 1.320724 1.320725 1.320725 1.320727 1.320734 1.320763 1.320872 1.321255 1.322521 1.326371 1.336945 1.364099 1.426696 1.529962 1.671652 1.973595 1.329092 -2.939058 -3.005194 0.108930 5.885357 73.475623 73.475623 73.475623 140.133562 1350.591420 5431.876498 5146.134288 2767.612448 2576.846112 1447.136356 812.454218 428.369636 194.082511 82.017168 32.563339 12.093211 4.428771 1.774754 0.911423 0.648611 0.573489 0.553175 0.547967 0.546699 0.546405 0.546340 0.546326 0.546323 0.546322 0.546322 0.546322 0.546322 0.546322 0.546322 0.546322 0.546322 0.546322 0.546323 0.546324 0.546330 0.546353 0.546437 0.546733 0.547704 0.550661 0.558820 0.579608 0.629333 0.725173 0.861680 1.157882 1.772397 1.556283 -0.080418 -2.707014 0.135636 73.546891 73.546891 73.546891 140.300059 1353.705196 5453.350356 5180.496022 2797.651771 2607.381786 1471.486472 827.646595 436.675880 198.304881 83.850533 33.153747 12.126948 4.234661 1.493798 0.599984 0.327265 0.249124 0.227945 0.222503 0.221175 0.220867 0.220798 0.220784 0.220781 0.220780 0.220780 0.220780 0.220780 0.220780 0.220780 0.220780 0.220780 0.220780 0.220780 0.220781 0.220785 0.220801 0.220860 0.221065 0.221730 0.223751 0.229360 0.243524 0.277399 0.350099 0.466522 0.623556 0.945562 1.497941 1.941599 1.317905 1.572721 73.568012 73.568012 73.568012 140.355176 1354.959227 5463.617144 5199.855537 2816.886668 2624.498658 1483.566085 835.175537 441.018539 200.545217 84.833257 33.496548 12.180485 4.166973 1.379275 0.468852 0.190658 0.110824 0.089153 0.083577 0.082214 0.081897 0.081827 0.081812 0.081809 0.081808 0.081808 0.081808 0.081808 0.081808 0.081808 0.081808 0.081808 0.081808 0.081808 0.081809 0.081811 0.081822 0.081859 0.081987 0.082397 0.083631 0.087070 0.095721 0.115827 0.160178 0.244330 0.364434 0.505735 0.688493 0.912183 0.849202 0.880876 73.574202 73.574202 73.574202 140.372489 1355.409620 5467.656359 5207.954378 2824.937880 2631.516717 1488.740288 838.627789 443.065193 201.602703 85.308761 33.675366 12.221218 4.148538 1.337707 0.418963 0.137979 0.057268 0.035340 0.029692 0.028311 0.027989 0.027918 0.027903 0.027899 0.027899 0.027899 0.027899 0.027899 0.027899 0.027899 0.027899 0.027899 0.027899 0.027899 0.027899 0.027901 0.027907 0.027928 0.028000 0.028229 0.028908 0.030789 0.035532 0.046298 0.068954 0.113395 0.187665 0.283167 0.373882 0.431369 0.373810 0.363966 73.575892 73.575892 73.575892 140.377445 1355.562496 5469.112461 5210.954436 2828.028421 2634.340743 1490.923189 840.105581 443.938375 202.059331 85.521766 33.760603 12.245264 4.145989 1.324623 0.402021 0.119719 0.038588 0.016535 0.010852 0.009461 0.009137 0.009065 0.009050 0.009046 0.009046 0.009046 0.009046 0.009046 0.009046 0.009046 0.009046 0.009046 0.009046 0.009046 0.009046 0.009047 0.009050 0.009061 0.009098 0.009215 0.009554 0.0104