<VTKFile type="PolyData">
<PolyData>
<Piece NumberOfPoints="8632" NumberOfVerts="8632" NumberOfLines="0" NumberOfStrips="0" NumberOfPolys="0">
<PointData>
<DataArray type="Float64" Name="Pressure" format="ascii">
 11023.818282 11023.818282 11023.818282 11026.155553 11051.385813 11112.475051 11153.040987 11129.861058 10990.233330 10732.306050 10401.782737 10020.420986 9589.165815 9113.597585 8611.048679 8102.402370 7605.585020 7122.525977 6644.536655 6181.782911 5716.633229 5195.930675 4590.637584 3899.334194 3148.369088 2411.769136 1776.956818 1258.635086 832.231149 511.215126 315.711453 245.471731 235.150085 209.242519 132.818690 16.055068 -74.216915 -91.370259 -71.780053 -89.232153 -174.949644 -263.394994 -294.645438 -295.043106 -332.913176 -457.223628 -624.951595 -761.571735 -891.072786 -1066.369323 -1247.836527 -1359.139074 -1393.527165 -1377.687041 -1333.141797 -1272.697642 -1203.255200 -1129.615458 -1055.465685 -982.941268 -913.024752 -846.129960 -782.407587 -721.889436 -664.553659 -610.354550 -559.235940 -511.136676 -465.992177 -423.734139 -384.289538 -347.579571 -313.518878 -282.015211 -252.969540 -226.276588 -201.825678 -179.501805 -159.186844 -140.760802 -124.103055 -109.093518 -95.613717 -83.547738 -72.783050 -63.211184 -54.728295 -47.235587 -40.639631 -34.852569 -29.792228 -25.382150 -21.551541 -18.235166 -15.373180 -12.910922 -10.798667 -8.991350 -7.448284 -6.132866 -5.012318 -4.057542 -3.243228 -2.548552 -1.958709 -1.464677 -1.050987 -0.789785 -0.740886 -0.740886 -0.740886 11023.818282 11023.818282 11023.818282 11026.155553 11051.385813 11112.475051 11153.040987 11129.861058 10990.233330 10732.306050 10401.782737 10020.420986 9589.165815 9113.597585 8611.048679 8102.402370 7605.585020 7122.525977 6644.536655 6181.782911 5716.633229 5195.930675 4590.637584 3899.334194 3148.369088 2411.769136 1776.956818 1258.635086 832.231149 511.215126 315.711453 245.471731 235.150085 209.242519 132.818690 16.055068 -74.216915 -91.370259 -71.780053 -89.232153 -174.949644 -263.394994 -294.645438 -295.043106 -332.913176 -457.223628 -624.951595 -761.571735 -891.072786 -1066.369323 -1247.836527 -1359.139074 -1393.527165 -1377.687041 -1333.141797 -1272.697642 -1203.255200 -1129.615458 -1055.465685 -982.941268 -913.024752 -846.129960 -782.407587 -721.889436 -664.553659 -610.354550 -559.235940 -511.136676 -465.992177 -423.734139 -384.289538 -347.579571 -313.518878 -282.015211 -252.969540 -226.276588 -201.825678 -179.501805 -159.186844 -140.760802 -124.103055 -109.093518 -95.613717 -83.547738 -72.783050 -63.211184 -54.728295 -47.235587 -40.639631 -34.852569 -29.792228 -25.382150 -21.551541 -18.235166 -15.373180 -12.910922 -10.798667 -8.991350 -7.448284 -6.132866 -5.012318 -4.057542 -3.243228 -2.548552 -1.958709 -1.464677 -1.050987 -0.789785 -0.740886 -0.740886 -0.740886 11023.818282 11023.818282 11023.818282 11026.155553 11051.385813 11112.475051 11153.040987 11129.861058 10990.233330 10732.306050 10401.782737 10020.420986 9589.165815 9113.597585 8611.048679 8102.402370 7605.585020 7122.525977 6644.536655 6181.782911 5716.633229 5195.930675 4590.637584 3899.334194 3148.369088 2411.769136 1776.956818 1258.635086 832.231149 511.215126 315.711453 245.471731 235.150085 209.242519 132.818690 16.055068 -74.216915 -91.370259 -71.780053 -89.232153 -174.949644 -263.394994 -294.645438 -295.043106 -332.913176 -457.223628 -624.951595 -761.571735 -891.072786 -1066.369323 -1247.836527 -1359.139074 -1393.527165 -1377.687041 -1333.141797 -1272.697642 -1203.255200 -1129.615458 -1055.465685 -982.941268 -913.024752 -846.129960 -782.407587 -721.889436 -664.553659 -610.354550 -559.235940 -511.136676 -465.992177 -423.734139 -384.289538 -347.579571 -313.518878 -282.015211 -252.969540 -226.276588 -201.825678 -179.501805 -159.186844 -140.760802 -124.103055 -109.093518 -95.613717 -83.547738 -72.783050 -63.211184 -54.728295 -47.235587 -40.639631 -34.852569 -29.792228 -25.382150 -21.551541 -18.235166 -15.373180 -12.910922 -10.798667 -8.991350 -7.448284 -6.132866 -5.012318 -4.057542 -3.243228 -2.548552 -1.958709 -1.464677 -1.050987 -0.789785 -0.740886 -0.740886 -0.740886 11037.549991 11037.549991 11037.549991 11039.126521 11058.753913 11115.158661 11170.759050 11174.007700 11034.895488 10750.218816 10407.376241 10025.588698 9601.207809 9130.607135 8631.707857 8130.683339 7643.276633 7173.148726 6684.493356 6216.650818 5769.241288 5251.089287 4631.221266 3916.106004 3146.010438 2387.712109 1746.788898 1233.039062 801.012410 487.049421 314.468056 286.141527 300.965401 269.044920 169.471502 16.327935 -94.631725 -99.206115 -54.527660 -60.031806 -172.919184 -283.041742 -303.982778 -280.825564 -302.130050 -440.584000 -643.761681 -766.127958 -879.098525 -1053.225549 -1279.055496 -1389.458167 -1411.683831 -1387.789589 -1339.051822 -1276.468455 -1205.495642 -1130.707266 -1055.906581 -983.093552 -913.057362 -846.114547 -782.373423 -721.848343 -664.510387 -610.310998 -559.192872 -511.094411 -465.950872 -423.693900 -384.250461 -347.541749 -313.482410 -281.980188 -252.936048 -226.244700 -201.795451 -179.473279 -159.160041 -140.735728 -124.079698 -109.071852 -95.593704 -83.529328 -72.766182 -63.195792 -54.714305 -47.222923 -40.628212 -34.842314 -29.783055 -25.373978 -21.544292 -18.228762 -15.367548 -12.905992 -10.794368 -8.987617 -7.445045 -6.130029 -5.009741 -4.054937 -3.239969 -2.543384 -1.950473 -1.454612 -1.043338 -0.784239 -0.735871 -0.735871 -0.735871 11190.763841 11190.763841 11190.763841 11186.699104 11141.182923 11122.052831 11402.745743 11849.232501 11708.542680 10924.282540 10367.910621 9949.520392 9604.878726 9183.156921 8711.483564 8313.514189 8011.609927 7821.345248 7175.554490 6603.698515 6506.494475 6145.700367 5319.315231 4233.208513 3256.604901 2278.930726 1537.825553 989.460164 265.475608 155.495394 221.136803 898.349683 1280.249305 1110.209679 719.577737 -40.700594 -463.379070 -208.542898 181.219499 450.433883 -180.651896 -664.598800 -428.843632 -111.512116 213.727696 -199.979330 -975.685422 -850.204401 -514.013751 -823.343823 -1675.838722 -1749.615012 -1612.174643 -1497.667793 -1403.879754 -1320.314197 -1231.890309 -1141.878530 -1060.280039 -984.569852 -913.360997 -845.950995 -782.028044 -721.436010 -664.077201 -609.875393 -558.762245 -510.671865 -465.537942 -423.291630 -383.859793 -347.163642 -313.117829 -281.630066 -252.601234 -225.925921 -201.493278 -179.188115 -158.892111 -140.485083 -123.846229 -108.855299 -95.393676 -83.345322 -72.597600 -63.041961 -54.574496 -47.096361 -40.514099 -34.739835 -29.691395 -25.292328 -21.471861 -18.164783 -15.311281 -12.856729 -10.751428 -8.950328 -7.412693 -6.101725 -4.984065 -4.029052 -3.207434 -2.489729 -1.848261 -1.321852 -0.948869 -0.721526 -0.681285 -0.681285 -0.681285 11430.995462 11430.995462 11430.995462 11421.711215 11295.759715 10812.860353 11513.727478 13643.261356 13269.736965 10680.429077 10371.946532 9368.609123 9302.793271 9100.204276 8047.249367 8208.263696 7717.309225 9724.169798 8222.384708 6262.826362 8414.272675 8981.974622 8771.105219 5172.559066 4059.712274 3307.914569 2057.155425 997.560024 -1160.327018 -772.793970 296.459672 2981.838608 3345.391383 2803.755455 1706.191470 -130.826181 -1186.031794 -417.843579 569.836760 1263.109815 -307.737703 -1373.801701 -644.680084 137.045182 1005.043598 139.398358 -1484.937031 -973.669937 1.070764 -790.257615 -2415.170347 -2250.238661 -1849.319780 -1627.391814 -1481.789196 -1382.154621 -1279.735709 -1161.051576 -1067.197164 -986.975708 -913.988946 -845.876943 -781.679907 -720.985019 -663.591864 -609.383055 -558.273847 -510.191943 -465.068644 -422.834309 -383.415599 -346.733700 -312.703258 -281.231939 -252.220528 -225.563467 -201.149729 -178.863929 -158.587543 -140.200192 -123.580885 -108.609205 -95.166385 -83.136258 -72.406082 -62.867221 -54.415699 -46.952629 -40.384518 -34.623480 -29.587336 -25.199645 -21.389653 -18.092176 -15.247434 -12.800831 -10.702699 -8.907983 -7.375871 -6.069283 -4.954046 -3.997277 -3.163634 -2.405665 -1.629782 -1.078189 -0.801380 -0.637129 -0.607185 -0.607185 -0.607185 -0.975719 -0.738057 -0.613880 -0.597170 -0.597170 -0.597170 -0.757184 -0.624856 -0.542175 -0.530912 -0.530912 -0.530912 -0.518989 -0.474659 -0.438248 -0.433094 -0.433094 -0.433094 -0.380150 -0.363849 -0.349776 -0.347695 -0.347695 -0.347695 -0.287267 -0.281673 -0.276971 -0.276297 -0.276297 -0.276297 -0.220528 -0.219072 -0.218090 -0.217982 -0.217982 -0.217982 -0.170462 -0.170546 -0.170928 -0.171025 -0.171025 -0.171025 -0.132023 -0.132609 -0.133403 -0.133557 -0.133557 -0.133557 -0.102184 -0.102867 -0.103704 -0.103859 -0.103859 -0.103859 -0.078923 -0.079556 -0.080307 -0.080444 -0.080444 -0.080444 -0.060783 -0.061323 -0.061953 -0.062067 -0.062067 -0.062067 -0.046659 -0.047101 -0.047614 -0.047707 -0.047707 -0.047707 -0.035693 -0.036047 -0.036457 -0.036531 -0.036531 -0.036531 -0.027205 -0.027486 -0.027810 -0.027868 -0.027868 -0.027868 -0.020660 -0.020880 -0.021134 -0.021180 -0.021180 -0.021180 -0.015631 -0.015803 -0.016001 -0.016037 -0.016037 -0.016037 -0.011782 -0.011915 -0.012069 -0.012097 -0.012097 -0.012097 -0.008848 -0.008951 -0.009070 -0.009091 -0.009091 -0.009091 -0.006619 -0.006698 -0.006790 -0.006806 -0.006806 -0.006806 -0.004933 -0.004994 -0.005064 -0.005077 -0.005077 -0.005077 -0.003663 -0.003709 -0.003763 -0.003772 -0.003772 -0.003772 -0.002710 -0.002745 -0.002785 -0.002793 -0.002793 -0.002793 -0.001997 -0.002023 -0.002054 -0.002060 -0.002060 -0.002060 -0.001466 -0.001486 -0.001509 -0.001513 -0.001513 -0.001513 -0.001072 -0.001087 -0.001105 -0.001108 -0.001108 -0.001108 -0.000781 -0.000792 -0.000805 -0.000808 -0.000808 -0.000808 -0.000567 -0.000575 -0.000585 -0.000587 -0.000587 -0.000587 -0.000410 -0.000416 -0.000423 -0.000425 -0.000425 -0.000425 -0.000296 -0.000300 -0.000305 -0.000306 -0.000306 -0.000306 -0.000212 -0.000215 -0.000219 -0.000220 -0.000220 -0.000220 -0.000152 -0.000154 -0.000157 -0.000157 -0.000157 -0.000157 -0.000108 -0.000110 -0.000112 -0.000112 -0.000112 -0.000112 -0.000077 -0.000078 -0.000079 -0.000080 -0.000080 -0.000080 -0.000054 -0.000055 -0.000056 -0.000056 -0.000056 -0.000056 -0.000038 -0.000039 -0.000040 -0.000040 -0.000040 -0.000040 -0.000027 -0.000027 -0.000028 -0.000028 -0.000028 -0.000028 -0.000019 -0.000019 -0.000019 -0.000020 -0.000020 -0.000020 -0.000013 -0.000013 -0.000014 -0.000014 -0.000014 -0.000014 -0.000009 -0.000009 -0.000009 -0.000009 -0.000009 -0.000009 -0.000006 -0.000006 -0.000007 -0.000007 -0.000007 -0.000007 -0.000004 -0.000004 -0.000005 -0.000005 -0.000005 -0.000005 -0.000003 -0.000003 -0.000003 -0.000003 -0.000003 -0.000003 -0.000002 -0.000002 -0.000002 -0.000002 -0.000002 -0.000002 -0.000001 -0.000001 -0.000001 -0.000001 -0.000001 -0.000001 -0.000001 -0.000001 -0.000001 -0.000001 -0.000001 -0.000001 -0.000001 -0.000001 -0.000001 -0.000001 -0.000001 -0.000001 -0.000000 -0.000000 -0.000000 -0.000000 -0.000000 -0.000000 -0.000000 -0.000000 -0.000000 -0.000000 -0.000000 -0.000000 -0.000000 -0.000000 -0.000000 -0.000000 -0.000000 -0.000000 -0.000000 -0.000000 -0.000000 -0.000000 -0.000000 -0.000000 -0.000000 -0.000000 -0.000000 -0.000000 -0.000000 -0.000000 -0.000000 -0.000000 -0.000000 -0.000000 -0.000000 -0.000000 -0.000000 -0.000000 -0.000000 -0.000000 -0.000000 -0.000000 -0.000000 -0.000000 -0.000000 -0.000000 -0.000000 -0.000000 -0.000000 -0.000000 -0.000000 -0.000000 -0.000000 -0.000000 -0.000000 -0.000000 -0.000000 -0.000000 -0.000000 -0.000000 -0.000000 -0.000000 -0.000000 -0.000000 -0.000000 -0.000000 -0.000000 -0.000000 -0.000000 -0.000000 -0.000000 -0.000000 -0.000000 -0.000000 -0.000000 -0.000000 -0.000000 -0.000000 -0.000000 -0.000000 -0.000000 -0.000000 -0.000000 -0.000000 -0.000000 -0.000000 -0.000000 -0.000000 -0.000000 -0.000000 -0.000000 -0.000000 -0.000000 -0.000000 -0.000000 -0.000000 -0.000000 -0.000000 -0.000000 0.000000 0.000000 0.000000 -0.000000 -0.000000 -0.000000 0.000000 0.000000 0.000000 -0.000000 -0.000000 -0.000000 0.000000 0.000000 0.000000 -0.000000 -0.000000 -0.000000 0.000000 0.000000 0.000000 -0.000000 -0.000000 -0.000000 0.000000 0.000000 0.000000 -0.000000 -0.000000 -0.000000 0.000000 0.000000 0.000000 -0.000000 -0.000000 -0.000000 0.000000 0.000000 0.000000 -0.000000 -0.000000 -0.000000 0.000000 0.000000 0.000000 -0.000000 -0.000000 -0.000000 0.000000 0.000000 0.000000 -0.000000 -0.000000 -0.000000 0.000000 0.000000 0.000000 -0.000000 -0.000000 -0.000000 0.000000 0.000000 0.000000 -0.000000 -0.000000 -0.000000 0.000000 0.000000 0.000000 -0.000000 -0.000000 -0.000000 0.000000 0.000000 0.000000 -0.000000 -0.000000 -0.000000 0.000000 0.000000 0.000000 -0.000000 -0.000000 -0.000000 0.000000 0.000000 0.000000 -0.000000 -0.000000 -0.000000 0.000000 0.000000 0.000000 -0.000000 -0.000000 -0.000000 0.000000 0.000000 0.000000 -0.000000 -0.000000 -0.000000 0.000000 0.000000 0.000000 -0.000000 -0.000000 -0.000000 0.000000 0.000000 0.000000 -0.000000 -0.000000 -0.000000 0.000000 0.000000 0.000000 -0.000000 -0.000000 -0.000000 0.000000 0.000000 0.000000 -0.000000 -0.000000 -0.000000 0.000000 0.000000 0.000000 -0.000000 -0.000000 -0.000000 0.000000 0.000000 0.000000 -0.000000 -0.000000 -0.000000 0.000000 0.000000 0.000000 -0.000000 -0.000000 -0.000000 0.000000 0.000000 0.000000 -0.000000 -0.000000 -0.000000 0.000000 0.000000 0.000000 -0.000000 -0.000000 -0.000000 0.000000 0.000000 0.000000 -0.000000 -0.000000 -0.000000 0.000000 0.000000 0.000000 -0.000000 -0.000000 -0.000000 0.000000 0.000000 0.000000 -0.000000 -0.000000 -0.000000 0.000000 0.000000 0.000000 -0.000000 -0.000000 -0.000000 0.000000 0.000000 0.000000 -0.000000 -0.000000 -0.000000 0.000000 0.000000 0.000000 -0.000000 -0.000000 -0.000000 0.000000 0.000000 0.000000 -0.000000 -0.000000 -0.000000 0.000000 0.000000 0.000000 -0.000000 -0.000000 -0.000000 0.000000 0.000000 0.000000 -0.000000 -0.000000 -0.000000 0.000000 0.000000 0.000000 -0.000000 -0.000000 -0.000000 0.000000 0.000000 0.000000 -0.000000 -0.000000 -0.000000 0.000000 0.000000 0.000000 -0.000000 -0.000000 -0.000000 0.000000 0.000000 0.000000 -0.000000 -0.000000 -0.000000 0.000000 0.000000 0.000000 -0.000000 -0.000000 -0.000000 0.000000 0.000000 0.000000 -0.000000 -0.000000 -0.000000 0.000000 0.000000 0.000000 -0.000000 -0.000000 -0.000000 0.000000 0.000000 0.000000 -0.000000 -0.000000 -0.000000 0.000000 0.000000 0.000000 -0.000000 -0.000000 -0.000000 0.000000 0.000000 0.000000 -0.000000 -0.000000 -0.000000 0.000000 0.000000 0.000000 -0.000000 -0.000000 -0.000000 0.000000 0.000000 0.000000 -0.000000 -0.000000 -0.000000 0.000000 0.000000 0.000000 -0.000000 -0.000000 -0.000000 0.000000 0.000000 0.000000 -0.000000 -0.000000 -0.000000 0.000000 0.000000 0.000000 -0.000000 -0.000000 -0.000000 0.000000 0.000000 0.000000 -0.000000 -0.000000 -0.000000 0.000000 0.000000 0.000000 -0.000000 -0.000000 -0.000000 0.000000 0.000000 0.000000 -0.000000 -0.000000 -0.000000 0.000000 0.000000 0.000000 -0.000000 -0.000000 -0.000000 0.000000 0.000000 0.000000 -0.000000 -0.000000 -0.000000 0.000000 0.000000 0.000000 -0.000000 -0.000000 -0.000000 0.000000 0.000000 0.000000 -0.000000 -0.000000 -0.000000 0.000000 0.000000 0.000000 -0.000000 -0.000000 -0.000000 0.000000 0.000000 0.000000 -0.000000 -0.000000 -0.000000 0.000000 0.000000 0.000000 -0.000000 -0.000000 -0.000000 0.000000 0.000000 0.000000 -0.000000 -0.000000 -0.000000 0.000000 0.000000 0.000000 -0.000000 -0.000000 -0.000000 0.000000 0.000000 0.000000 -0.000000 -0.000000 -0.000000 0.000000 0.000000 0.000000 -0.000000 -0.000000 -0.000000 0.000000 0.000000 0.000000 -0.000000 -0.000000 -0.000000 0.000000 0.000000 0.000000 -0.000000 -0.000000 -0.000000 0.000000 0.000000 0.000000 -0.000000 -0.000000 -0.000000 0.000000 0.000000 0.000000 -0.000000 -0.000000 -0.000000 0.000000 0.000000 0.000000 -0.000000 -0.000000 -0.000000 0.000000 0.000000 0.000000 -0.000000 -0.000000 -0.000000 0.000000 0.000000 0.000000 -0.000000 -0.000000 -0.000000 0.000000 0.000000 0.000000 -0.000000 -0.000000 -0.000000 0.000000 0.000000 0.000000 -0.000000 -0.000000 -0.000000 0.000000 0.000000 0.000000 -0.000000 -0.000000 -0.000000 0.000000 0.000000 0.000000 -0.000000 -0.000000 -0.000000 0.000000 0.000000 0.000000 -0.000000 -0.000000 -0.000000 0.000000 0.000000 0.000000 -0.000000 -0.000000 -0.000000 0.000000 0.000000 0.000000 -0.000000 -0.000000 -0.000000 0.000000 0.000000 0.000000 -0.000000 -0.000000 -0.000000 0.000000 0.000000 0.000000 -0.000000 -0.000000 -0.000000 0.000000 0.000000 0.000000 -0.000000 -0.000000 -0.000000 0.000000 0.000000 0.000000 -0.000000 -0.000000 -0.000000 0.000000 0.000000 0.000000 -0.000000 -0.000000 -0.000000 0.000000 0.000000 0.000000 -0.000000 -0.000000 -0.000000 0.000000 0.000000 0.000000 -0.000000 -0.000000 -0.000000 0.000000 0.000000 0.000000 -0.000000 -0.000000 -0.000000 0.000000 0.000000 0.000000 -0.000000 -0.000000 -0.000000 0.000000 0.000000 0.000000 -0.000000 -0.000000 -0.000000 0.000000 0.000000 0.000000 -0.000000 -0.000000 -0.000000 0.000000 0.000000 0.000000 -0.000000 -0.000000 -0.000000 0.000000 0.000000 0.000000 -0.000000 -0.000000 -0.000000 0.000000 0.000000 0.000000 -0.000000 -0.000000 -0.000000 0.000000 0.000000 0.000000 -0.000000 -0.000000 -0.000000 0.000000 0.000000 0.000000 -0.000000 -0.000000 -0.000000 0.000000 0.000000 0.000000 -0.000000 -0.000000 -0.000000 0.000000 0.000000 0.000000 -0.000000 -0.000000 -0.000000 -0.000000 -0.000000 -0.000000 -0.000000 -0.000000 -0.000000 -0.000000 -0.000000 -0.000000 -0.000000 -0.000000 -0.000000 -0.000000 -0.000000 -0.000000 -0.000000 -0.000000 -0.000000 -0.000000 -0.000000 -0.000000 -0.000000 -0.000000 -0.000000 -0.000000 -0.000000 -0.000000 -0.000000 -0.000000 -0.000000 -0.000000 -0.000000 -0.000000 -0.000000 -0.000000 -0.000000 -0.000000 -0.000000 -0.000000 -0.000000 -0.000000 -0.000000 -0.000000 -0.000000 -0.000000 -0.000000 -0.000000 -0.000000 -0.000000 -0.000000 -0.000000 -0.000000 -0.000000 -0.000000 -0.000000 -0.000000 -0.000000 -0.000000 -0.000000 -0.000000 -0.000000 -0.000000 -0.000000 -0.000000 -0.000000 -0.000000 -0.000000 -0.000000 -0.000000 -0.000000 -0.000000 -0.000000 -0.000000 -0.000000 -0.000000 -0.000000 -0.000000 -0.000000 -0.000000 -0.000000 -0.000000 -0.000000 -0.000000 -0.000000 -0.000000 -0.000000 -0.000000 -0.000000 -0.000000 -0.000000 -0.000000 -0.000000 -0.000000 -0.000000 -0.000000 -0.000000 -0.000000 -0.000000 -0.000000 -0.000000 -0.000000 -0.000000 -0.000000 -0.000000 -0.000000 -0.000000 -0.000000 -0.000000 -0.000000 -0.000000 -0.000000 -0.000000 -0.000000 -0.000000 -0.000000 -0.000000 -0.000000 -0.000000 -0.000000 -0.000000 -0.000000 -0.000000 -0.000000 -0.000000 -0.000000 -0.000000 -0.000000 -0.000000 -0.000000 -0.000000 -0.000000 -0.000000 -0.000000 -0.000000 -0.000000 -0.000000 -0.000000 -0.000000 -0.000000 -0.000000 -0.000000 -0.000000 -0.000000 -0.000000 -0.000000 -0.000000 -0.000000 -0.000000 -0.000000 -0.000000 -0.000000 -0.000000 -0.000000 -0.000000 -0.000000 -0.000000 -0.000000 -0.000000 -0.000000 -0.000000 -0.000000 -0.000000 -0.000000 -0.000000 -0.000000 -0.000000 -0.000000 -0.000000 -0.000000 -0.000000 -0.000000 -0.000000 -0.000000 -0.000000 -0.000000 -0.000000 -0.000000 -0.000000 -0.000000 -0.000000 -0.000000 -0.000000 -0.000000 -0.000001 -0.000001 -0.000001 -0.000001 -0.000001 -0.000001 -0.000001 -0.000001 -0.000001 -0.000001 -0.000001 -0.000001 -0.000001 -0.000001 -0.000001 -0.000001 -0.000001 -0.000001 -0.000001 -0.000001 -0.000001 -0.000001 -0.000001 -0.000001 -0.000002 -0.000002 -0.000002 -0.000002 -0.000002 -0.000002 -0.000003 -0.000003 -0.000003 -0.000003 -0.000003 -0.000003 -0.000004 -0.000003 -0.000003 -0.000003 -0.000003 -0.000003 -0.000005 -0.000005 -0.000005 -0.000004 -0.000004 -0.000004 -0.000006 -0.000006 -0.000006 -0.000006 -0.000006 -0.000006 -0.000009 -0.000008 -0.000007 -0.000007 -0.000007 -0.000007 -0.000012 -0.000010 -0.000009 -0.000009 -0.000009 -0.000009 20520.941775 20520.941775 20520.941775 20663.368956 22775.850454 20636.303684 15277.283289 19388.063067 21365.745918 22134.088850 21675.910487 21385.507571 21047.637548 20578.172944 20153.024332 19773.750864 20246.141956 18546.607825 18156.126463 19107.537528 16538.389810 17181.869617 16720.190759 15693.702108 15302.513280 13981.049482 15067.212272 13125.663549 13006.842648 13281.757264 14037.091248 14412.648485 11730.604300 13259.308495 7262.896264 8385.192347 6438.474728 8690.975411 9523.393401 8532.459422 4521.421651 3215.203258 605.851948 4341.743541 833.115743 3707.070288 3787.806559 920.620637 1061.227805 4859.034234 642.852415 5619.288386 5731.478152 -1684.323643 6830.039964 321.232676 -6097.329740 7966.264022 3004.584813 1667.050521 1086.940379 -366.388866 -1140.468403 -1655.763666 -2170.856755 533.529185 364.485605 -33.777110 -177.016757 -259.409944 216.430130 74.582800 35.075728 18.136577 11.065493 7.480679 5.193784 3.542559 2.331754 1.475678 0.901119 0.535140 0.312536 0.181992 0.107230 0.064746 0.040354 0.025962 0.017138 0.011503 0.007779 0.005260 0.003533 0.002346 0.001532 0.000979 0.000608 0.000362 0.000203 0.000103 0.000042 0.000007 -0.000011 -0.000019 -0.000019 -0.000016 -0.000013 -0.000011 -0.000011 -0.000011 -0.000011 20135.981104 20135.981104 20135.981104 20140.095154 20557.460113 18930.046200 16425.562651 18972.405083 20535.148909 21066.631208 21438.395269 21162.285320 20475.213378 19535.542520 19166.693397 18709.701623 18522.484949 17384.975007 17380.365400 17783.310672 16403.264854 16424.389668 16178.236610 15234.370883 14991.983893 14448.431641 14282.464268 13556.546652 13208.143875 13137.889731 12998.291478 12632.864354 12038.492583 11317.616527 9016.411084 8288.410910 7649.982778 7568.287485 7485.694310 7110.633073 6023.630372 5504.768498 4690.586184 4340.928483 3192.351807 4295.147994 5100.104560 4548.087159 4197.569024 5100.671064 4044.028019 3391.625708 2365.657110 1518.230210 1964.738052 933.113618 886.232423 2281.153110 1744.571336 1033.312443 455.449489 -116.075522 -513.255025 -651.818545 -380.641304 59.354221 126.872032 17.040040 -29.914611 7.443169 57.009221 50.151926 27.990292 16.443015 10.732626 7.468881 5.249115 3.605499 2.387137 1.519251 0.932623 0.556309 0.325878 0.189956 0.111785 0.067278 0.041747 0.026738 0.017585 0.011773 0.007951 0.005373 0.003611 0.002400 0.001570 0.001006 0.000626 0.000375 0.000211 0.000108 0.000045 0.000009 -0.000010 -0.000018 -0.000020 -0.000018 -0.000015 -0.000013 -0.000013 -0.000013 -0.000013 19935.463225 19935.463225 19935.463225 19939.015041 19986.907544 20006.059170 20030.752574 20492.740821 20763.309289 20858.084053 20875.241658 20598.739896 20143.675845 19578.170261 19064.696395 18583.028430 18080.523674 17532.927704 17101.116544 16704.121533 16247.618279 15857.544834 15474.818776 15038.351822 14607.782852 14156.502607 13684.937672 13217.668226 12853.898670 12620.864885 12400.387167 12051.221040 11585.809000 11006.883746 10205.515609 9378.916907 8662.637831 8093.666282 7624.448340 7176.183614 6720.693600 6280.312123 5832.478407 5402.122767 4974.082581 4718.129135 4523.975040 4220.700396 3880.701725 3493.544091 2945.846555 2409.268632 1914.965323 1580.955829 1449.223961 1329.390118 1321.245338 1302.579049 1031.544708 684.600009 359.518421 105.856603 -36.173359 -60.018482 2.199457 68.779706 72.675947 49.949046 39.090117 41.700100 41.651850 32.454875 22.121425 14.934822 10.452088 7.476854 5.314808 3.676180 2.449287 1.568625 0.968730 0.580837 0.341491 0.199359 0.117202 0.070306 0.043418 0.027668 0.018118 0.012093 0.008153 0.005506 0.003701 0.002463 0.001614 0.001036 0.000647 0.000389 0.000221 0.000115 0.000050 0.000012 -0.000008 -0.000018 -0.000020 -0.000019 -0.000016 -0.000014 -0.000014 -0.000014 -0.000014 19908.643522 19908.643522 19908.643522 19916.687577 20000.849054 20214.659357 20460.845964 20695.056313 20819.099777 20863.979199 20805.554022 20554.784153 20130.391022 19625.515137 19115.947940 18612.754509 18094.726043 17565.852032 17080.921513 16632.447174 16186.759053 15775.719105 15375.133793 14954.753426 14526.253221 14076.810250 13610.721758 13165.915790 12803.679676 12535.013623 12278.389028 11937.436541 11500.325188 10959.213020 10271.620649 9515.784837 8806.767129 8202.449074 7688.010361 7223.813193 6787.255940 6369.716011 5950.471956 5524.957674 5107.982012 4767.474382 4465.350057 4119.084240 3729.472046 3294.034997 2793.726413 2303.814321 1885.199015 1599.264212 1448.500438 1367.564997 1316.086816 1196.613495 947.493368 639.651046 352.996953 139.997068 28.617605 10.683363 44.114421 71.988623 69.071141 53.775584 45.717769 43.888015 39.279498 30.302071 21.262856 14.709777 10.412836 7.480824 5.326959 3.688755 2.460311 1.577425 0.975205 0.585262 0.344324 0.201074 0.118195 0.070862 0.043726 0.027839 0.018216 0.012151 0.008189 0.005531 0.003718 0.002474 0.001622 0.001042 0.000651 0.000392 0.000223 0.000116 0.000051 0.000012 -0.000008 -0.000018 -0.000020 -0.000019 -0.000017 -0.000014 -0.000014 -0.000014 -0.000014 19908.643522 19908.643522 19908.643522 19916.687577 20000.849054 20214.659357 20460.845964 20695.056313 20819.099777 20863.979199 20805.554022 20554.784153 20130.391022 19625.515137 19115.947940 18612.754509 18094.726043 17565.852032 17080.921513 16632.447174 16186.759053 15775.719105 15375.133793 14954.753426 14526.253221 14076.810250 13610.721758 13165.915790 12803.679676 12535.013623 12278.389028 11937.436541 11500.325188 10959.213020 10271.620649 9515.784837 8806.767129 8202.449074 7688.010361 7223.813193 6787.255940 6369.716011 5950.471956 5524.957674 5107.982012 4767.474382 4465.350057 4119.084240 3729.472046 3294.034997 2793.726413 2303.814321 1885.199015 1599.264212 1448.500438 1367.564997 1316.086816 1196.613495 947.493368 639.651046 352.996953 139.997068 28.617605 10.683363 44.114421 71.988623 69.071141 53.775584 45.717769 43.888015 39.279498 30.302071 21.262856 14.709777 10.412836 7.480824 5.326959 3.688755 2.460311 1.577425 0.975205 0.585262 0.344324 0.201074 0.118195 0.070862 0.043726 0.027839 0.018216 0.012151 0.008189 0.005531 0.003718 0.002474 0.001622 0.001042 0.000651 0.000392 0.000223 0.000116 0.000051 0.000012 -0.000008 -0.000018 -0.000020 -0.000019 -0.000017 -0.000014 -0.000014 -0.000014 -0.000014 19908.643522 19908.643522 19908.643522 19916.687577 20000.849054 20214.659357 20460.845964 20695.056313 20819.099777 20863.979199 20805.554022 20554.784153 20130.391022 19625.515137 19115.947940 18612.754509 18094.726043 17565.852032 17080.921513 16632.447174 16186.759053 15775.719105 15375.133793 14954.753426 14526.253221 14076.810250 13610.721758 13165.915790 12803.679676 12535.013623 12278.389028 11937.436541 11500.325188 10959.213020 10271.620649 9515.784837 8806.767129 8202.449074 7688.010361 7223.813193 6787.255940 6369.716011 5950.471956 5524.957674 5107.982012 4767.474382 4465.350057 4119.084240 3729.472046 3294.034997 2793.726413 2303.814321 1885.199015 1599.264212 1448.500438 1367.564997 1316.086816 1196.613495 947.493368 639.651046 352.996953 139.997068 28.617605 10.683363 44.114421 71.988623 69.071141 53.775584 45.717769 43.888015 39.279498 30.302071 21.262856 14.709777 10.412836 7.480824 5.326959 3.688755 2.460311 1.577425 0.975205 0.585262 0.344324 0.201074 0.118195 0.070862 0.043726 0.027839 0.018216 0.012151 0.008189 0.005531 0.003718 0.002474 0.001622 0.001042 0.000651 0.000392 0.000223 0.000116 0.000051 0.000012 -0.000008 -0.000018 -0.000020 -0.000019 -0.000017 -0.000014 -0.000014 -0.000014 -0.000014 11470.538782 11470.538782 11470.538782 11462.421693 11298.363025 10766.001965 11624.892651 13946.137259 13472.652540 10539.486214 10585.525904 9344.374551 9235.245519 9017.690000 7805.801837 8135.407216 7261.248663 9899.868857 8582.091559 6142.585218 8774.555994 9575.738926 9496.713760 5414.115180 4655.808251 3901.659960 2495.280995 1861.585798 -1274.511515 -1195.846558 -15.125175 3636.868892 4246.789764 3707.437609 1816.320318 -128.693772 -1266.197445 -443.114742 602.774634 1317.312345 -346.190605 -1442.846403 -665.256408 155.904659 1059.553467 171.380976 -1509.201357 -981.884105 4.508076 -868.856320 -2509.679420 -2291.727768 -1866.772410 -1636.829494 -1487.588080 -1387.865828 11783.664890 11783.664890 11783.664890 11773.094744 11253.031732 11512.332817 11261.505959 14183.162520 13513.782965 8120.219377 8194.414014 10278.420164 12843.978422 11823.210954 12403.942587 12629.193282 12136.618106 8303.226585 12732.505801 12412.472901 12841.334030 11498.695492 13901.390251 9645.575585 13576.241970 12328.729426 12197.717619 11300.372879 8772.365957 10054.871908 13351.369572 11012.665538 12151.356214 13610.789510 13448.404509 11636.629915 10228.533712 11552.775580 13529.636711 11518.210156 12184.491630 11310.152435 12439.859104 9377.692567 12989.504952 13103.610252 12523.727309 12372.887715 13507.851275 15581.751029 15707.310387 13219.934410 13493.241930 -5577.308017 -231.784028 -606.136648 12284.334914 12284.334914 12284.334914 12255.902800 11583.704230 12320.025814 10278.751560 10325.645455 12175.124590 10472.861632 10367.391065 10975.037101 12490.641721 10238.964564 10311.165968 8561.877358 10575.853495 10901.979412 12039.494756 9165.023324 12069.009103 11902.858123 10640.889953 9878.120265 10525.431921 8995.318586 9082.181299 12172.545909 9214.002368 11441.793417 9410.197071 10963.643024 13825.445869 11056.416276 13425.295203 11857.490624 11981.767399 12499.713389 12736.507244 13166.802855 12909.591925 14395.786607 12567.868529 13258.361985 12730.461048 12394.918889 12028.521136 12185.687898 14119.708059 13128.047826 13484.103422 15021.588838 7100.659380 6155.444190 -259.702967 106.773114 12657.993582 12657.993582 12657.993582 12700.288656 12567.446116 13286.129481 12681.378706 13111.984156 10250.468093 8594.932409 8586.954615 8694.800571 8341.937567 10957.330126 11167.496133 9558.001243 10885.905193 11376.426299 9154.984479 10443.425309 13023.919218 13527.092778 8943.059912 10610.494793 12344.159936 11804.600593 10009.851690 10633.441288 10998.362249 11617.586388 10435.087156 10152.256675 13037.647218 13424.665161 13115.981864 12423.437575 11568.022220 11412.418361 10742.587920 16225.091110 13711.539198 13206.290338 14684.341354 12589.645935 13867.078721 13398.999740 14582.539561 14643.594948 13870.566877 14855.131257 7009.448597 13488.892365 598.179540 10399.748415 -1291.242