<VTKFile type="PolyData">
<PolyData>
<Piece NumberOfPoints="8632" NumberOfVerts="8632" NumberOfLines="0" NumberOfStrips="0" NumberOfPolys="0">
<PointData>
<DataArray type="Float64" Name="Pressure" format="ascii">
 12992.813273 12992.813273 12992.813273 12985.023876 12899.330597 12691.465394 12484.611664 12264.885378 11989.756208 11631.936927 11197.283622 10696.219285 10135.298736 9521.650611 8858.626827 8154.159122 7420.602000 6658.733948 5863.438806 5030.494937 4167.891866 3306.208190 2500.011652 1815.128245 1291.607524 924.923669 685.677223 540.791888 458.882072 407.362954 348.494143 245.138610 100.767597 -13.543124 -47.164726 -21.049839 14.715694 4.587283 -84.723974 -203.523185 -272.716613 -296.589926 -331.782979 -435.714091 -608.744414 -772.291189 -901.013263 -1049.610117 -1234.244577 -1385.013829 -1459.764993 -1476.758529 -1460.399023 -1425.415834 -1380.082895 -1328.287362 -1271.852198 -1212.416102 -1151.708283 -1090.937487 -1030.804548 -971.749607 -914.079830 -858.025007 -803.760691 -751.419590 -701.098972 -652.866590 -606.765764 -562.819686 -521.034948 -481.404350 -443.909060 -408.520279 -375.200537 -343.904723 -314.580979 -287.171496 -261.613274 -237.838867 -215.777123 -195.353917 -176.492871 -159.116057 -143.144657 -128.499592 -115.102095 -102.874231 -91.739360 -81.622538 -72.450865 -64.153763 -56.663213 -49.913931 -43.843494 -38.392433 -33.504276 -29.125572 -25.205905 -21.697945 -18.557633 -15.744770 -13.224587 -10.971483 -8.975789 -7.243989 -5.754354 -4.798873 -4.618753 -4.618753 -4.618753 12992.813273 12992.813273 12992.813273 12985.023876 12899.330597 12691.465394 12484.611664 12264.885378 11989.756208 11631.936927 11197.283622 10696.219285 10135.298736 9521.650611 8858.626827 8154.159122 7420.602000 6658.733948 5863.438806 5030.494937 4167.891866 3306.208190 2500.011652 1815.128245 1291.607524 924.923669 685.677223 540.791888 458.882072 407.362954 348.494143 245.138610 100.767597 -13.543124 -47.164726 -21.049839 14.715694 4.587283 -84.723974 -203.523185 -272.716613 -296.589926 -331.782979 -435.714091 -608.744414 -772.291189 -901.013263 -1049.610117 -1234.244577 -1385.013829 -1459.764993 -1476.758529 -1460.399023 -1425.415834 -1380.082895 -1328.287362 -1271.852198 -1212.416102 -1151.708283 -1090.937487 -1030.804548 -971.749607 -914.079830 -858.025007 -803.760691 -751.419590 -701.098972 -652.866590 -606.765764 -562.819686 -521.034948 -481.404350 -443.909060 -408.520279 -375.200537 -343.904723 -314.580979 -287.171496 -261.613274 -237.838867 -215.777123 -195.353917 -176.492871 -159.116057 -143.144657 -128.499592 -115.102095 -102.874231 -91.739360 -81.622538 -72.450865 -64.153763 -56.663213 -49.913931 -43.843494 -38.392433 -33.504276 -29.125572 -25.205905 -21.697945 -18.557633 -15.744770 -13.224587 -10.971483 -8.975789 -7.243989 -5.754354 -4.798873 -4.618753 -4.618753 -4.618753 12992.813273 12992.813273 12992.813273 12985.023876 12899.330597 12691.465394 12484.611664 12264.885378 11989.756208 11631.936927 11197.283622 10696.219285 10135.298736 9521.650611 8858.626827 8154.159122 7420.602000 6658.733948 5863.438806 5030.494937 4167.891866 3306.208190 2500.011652 1815.128245 1291.607524 924.923669 685.677223 540.791888 458.882072 407.362954 348.494143 245.138610 100.767597 -13.543124 -47.164726 -21.049839 14.715694 4.587283 -84.723974 -203.523185 -272.716613 -296.589926 -331.782979 -435.714091 -608.744414 -772.291189 -901.013263 -1049.610117 -1234.244577 -1385.013829 -1459.764993 -1476.758529 -1460.399023 -1425.415834 -1380.082895 -1328.287362 -1271.852198 -1212.416102 -1151.708283 -1090.937487 -1030.804548 -971.749607 -914.079830 -858.025007 -803.760691 -751.419590 -701.098972 -652.866590 -606.765764 -562.819686 -521.034948 -481.404350 -443.909060 -408.520279 -375.200537 -343.904723 -314.580979 -287.171496 -261.613274 -237.838867 -215.777123 -195.353917 -176.492871 -159.116057 -143.144657 -128.499592 -115.102095 -102.874231 -91.739360 -81.622538 -72.450865 -64.153763 -56.663213 -49.913931 -43.843494 -38.392433 -33.504276 -29.125572 -25.205905 -21.697945 -18.557633 -15.744770 -13.224587 -10.971483 -8.975789 -7.243989 -5.754354 -4.798873 -4.618753 -4.618753 -4.618753 13000.985378 13000.985378 13000.985378 12993.494439 12909.647947 12703.104538 12496.437659 12283.341590 12006.313505 11639.832124 11198.785949 10688.837136 10119.125143 9504.625607 8839.615767 8128.898453 7398.230886 6642.974863 5857.496651 5029.352906 4161.400567 3285.055288 2458.262207 1763.902928 1247.406564 893.698808 666.384406 531.409458 458.961623 418.281469 370.260477 263.986437 91.716709 -41.314739 -66.643422 -22.872856 31.714862 33.617718 -72.316993 -226.920412 -289.093448 -293.279819 -308.053931 -403.454957 -616.755336 -786.627932 -899.716952 -1019.180280 -1216.260580 -1417.288793 -1483.685145 -1489.973560 -1467.552858 -1429.413259 -1382.579440 -1330.088714 -1273.043507 -1213.031860 -1151.967812 -1091.033939 -1030.831003 -971.746005 -914.062737 -858.001394 -803.733642 -751.390595 -701.068839 -652.835817 -606.734694 -562.788572 -521.003990 -481.373711 -443.878877 -408.490673 -375.171610 -343.876567 -314.553676 -287.145116 -261.587877 -237.814502 -215.753830 -195.331724 -176.471799 -159.096116 -143.125848 -128.481909 -115.085525 -102.858753 -91.724949 -81.609165 -72.438494 -64.142358 -56.652734 -49.904336 -43.834740 -38.384474 -33.497059 -29.119032 -25.199943 -21.692370 -18.552029 -15.738150 -13.214650 -10.953491 -8.945187 -7.204972 -5.722719 -4.774141 -4.595583 -4.595583 -4.595583 13096.092765 13096.092765 13096.092765 13097.111258 13074.468681 12886.819771 12649.160508 12510.177525 12173.108815 11726.502669 11263.999305 10641.930903 9947.845519 9358.041670 8669.750790 7832.667753 7115.152931 6444.614761 5798.798660 5052.659509 4131.900208 3072.848982 1963.310719 1144.238865 737.881792 550.957709 457.804941 430.618427 461.628962 548.733729 658.609204 614.628725 -71.773852 -481.820338 -306.602864 -44.938906 234.515620 508.386918 102.487823 -610.849145 -518.876870 -257.224582 30.931293 50.074480 -790.570082 -1086.523349 -797.121642 -463.543727 -1031.058490 -1765.985791 -1752.630463 -1635.092889 -1545.198164 -1472.750495 -1410.118619 -1351.719615 -1287.647048 -1219.413061 -1154.558310 -1091.974313 -1031.083208 -971.704639 -913.889557 -857.764307 -803.462740 -751.100460 -700.767434 -652.528074 -606.424008 -562.477470 -520.694461 -481.067380 -443.577119 -408.194675 -374.882414 -343.595091 -314.280726 -286.881395 -261.333983 -237.570931 -215.520974 -195.109876 -176.261155 -158.896777 -142.937831 -128.305151 -114.919889 -102.704041 -91.580907 -81.475490 -72.314847 -64.028367 -56.548002 -49.808444 -43.747253 -38.304929 -33.424942 -29.053697 -25.140407 -21.636782 -18.496304 -15.672553 -13.115496 -10.766361 -8.566202 -6.692677 -5.332237 -4.491506 -4.341723 -4.341723 -4.341723 13247.409176 13247.409176 13247.409176 13271.814918 13489.821030 13550.818199 13050.085631 13054.550974 12051.248863 11604.555089 11934.319341 10849.855803 9588.459411 9608.244349 8962.007567 7058.452741 6686.969779 5857.933190 5802.574875 5275.925020 4208.305326 3100.225452 1075.628405 86.093360 98.268173 148.336844 217.826943 316.744693 470.067672 718.114599 1168.395536 1388.223693 -371.713700 -1332.874142 -656.968427 -73.757769 525.013912 1230.412081 347.772120 -1179.459720 -862.789083 -216.396011 512.217754 644.141459 -1104.681114 -1576.309764 -675.777252 -236.069917 -1669.702580 -2529.967587 -2099.193546 -1808.207045 -1636.793964 -1523.822627 -1443.547294 -1383.359172 -1315.318956 -1230.596758 -1158.621795 -1093.454145 -1031.527766 -971.719309 -913.716636 -857.503831 -803.157969 -750.771570 -700.424900 -652.178056 -606.070576 -562.123570 -520.342372 -480.718955 -443.233918 -407.858043 -374.553531 -343.275001 -313.970346 -286.581522 -261.045298 -237.293996 -215.256236 -194.857667 -176.021696 -158.670184 -142.724121 -128.104250 -114.731642 -102.528221 -91.417222 -81.323597 -72.174358 -63.898856 -56.429016 -49.699507 -43.647862 -38.214547 -33.342951 -28.979284 -25.072250 -21.572252 -18.429398 -15.588500 -12.976103 -10.465744 -7.751749 -5.749711 -4.720980 -4.102882 -3.989660 -3.989660 -3.989660 -5.362379 -4.473632 -4.004358 -3.940868 -3.940868 -3.940868 -4.471032 -3.967744 -3.651789 -3.608538 -3.608538 -3.608538 -3.431213 -3.260319 -3.119751 -3.099908 -3.099908 -3.099908 -2.761770 -2.698461 -2.643859 -2.635792 -2.635792 -2.635792 -2.268887 -2.247408 -2.229527 -2.226988 -2.226988 -2.226988 -1.881373 -1.876421 -1.873481 -1.873227 -1.873227 -1.873227 -1.565502 -1.566891 -1.569628 -1.570233 -1.570233 -1.570233 -1.303376 -1.306936 -1.311502 -1.312369 -1.312369 -1.312369 -1.084114 -1.088156 -1.092998 -1.093888 -1.093888 -1.093888 -0.900201 -0.904072 -0.908601 -0.909423 -0.909423 -0.909423 -0.745927 -0.749401 -0.753426 -0.754153 -0.754153 -0.754153 -0.616679 -0.619705 -0.623196 -0.623825 -0.623825 -0.623825 -0.508608 -0.511204 -0.514193 -0.514730 -0.514730 -0.514730 -0.418449 -0.420657 -0.423196 -0.423652 -0.423652 -0.423652 -0.343419 -0.345286 -0.347431 -0.347817 -0.347817 -0.347817 -0.281138 -0.282709 -0.284516 -0.284840 -0.284840 -0.284840 -0.229573 -0.230891 -0.232407 -0.232679 -0.232679 -0.232679 -0.186992 -0.188095 -0.189363 -0.189590 -0.189590 -0.189590 -0.151924 -0.152843 -0.153900 -0.154090 -0.154090 -0.154090 -0.123118 -0.123883 -0.124762 -0.124920 -0.124920 -0.124920 -0.099520 -0.100154 -0.100883 -0.101014 -0.101014 -0.101014 -0.080240 -0.080764 -0.081366 -0.081474 -0.081474 -0.081474 -0.064529 -0.064960 -0.065457 -0.065546 -0.065546 -0.065546 -0.051761 -0.052116 -0.052524 -0.052597 -0.052597 -0.052597 -0.041412 -0.041703 -0.042038 -0.042098 -0.042098 -0.042098 -0.033047 -0.033285 -0.033558 -0.033608 -0.033608 -0.033608 -0.026303 -0.026497 -0.026720 -0.026761 -0.026761 -0.026761 -0.020882 -0.021039 -0.021221 -0.021253 -0.021253 -0.021253 -0.016535 -0.016662 -0.016809 -0.016836 -0.016836 -0.016836 -0.013058 -0.013162 -0.013280 -0.013302 -0.013302 -0.013302 -0.010286 -0.010369 -0.010465 -0.010482 -0.010482 -0.010482 -0.008081 -0.008148 -0.008225 -0.008239 -0.008239 -0.008239 -0.006333 -0.006386 -0.006448 -0.006459 -0.006459 -0.006459 -0.004949 -0.004992 -0.005041 -0.005050 -0.005050 -0.005050 -0.003858 -0.003892 -0.003931 -0.003938 -0.003938 -0.003938 -0.002999 -0.003026 -0.003058 -0.003063 -0.003063 -0.003063 -0.002326 -0.002347 -0.002372 -0.002376 -0.002376 -0.002376 -0.001799 -0.001816 -0.001835 -0.001839 -0.001839 -0.001839 -0.001387 -0.001401 -0.001416 -0.001419 -0.001419 -0.001419 -0.001067 -0.001078 -0.001090 -0.001092 -0.001092 -0.001092 -0.000819 -0.000827 -0.000837 -0.000838 -0.000838 -0.000838 -0.000627 -0.000633 -0.000640 -0.000642 -0.000642 -0.000642 -0.000478 -0.000483 -0.000489 -0.000490 -0.000490 -0.000490 -0.000364 -0.000368 -0.000372 -0.000373 -0.000373 -0.000373 -0.000276 -0.000279 -0.000283 -0.000283 -0.000283 -0.000283 -0.000209 -0.000212 -0.000214 -0.000215 -0.000215 -0.000215 -0.000158 -0.000160 -0.000162 -0.000162 -0.000162 -0.000162 -0.000119 -0.000120 -0.000122 -0.000122 -0.000122 -0.000122 -0.000089 -0.000090 -0.000092 -0.000092 -0.000092 -0.000092 -0.000067 -0.000068 -0.000069 -0.000069 -0.000069 -0.000069 -0.000050 -0.000051 -0.000051 -0.000051 -0.000051 -0.000051 -0.000037 -0.000038 -0.000038 -0.000038 -0.000038 -0.000038 -0.000028 -0.000028 -0.000028 -0.000029 -0.000029 -0.000029 -0.000021 -0.000021 -0.000021 -0.000021 -0.000021 -0.000021 -0.000015 -0.000015 -0.000016 -0.000016 -0.000016 -0.000016 -0.000011 -0.000011 -0.000012 -0.000012 -0.000012 -0.000012 -0.000008 -0.000008 -0.000008 -0.000009 -0.000009 -0.000009 -0.000006 -0.000006 -0.000006 -0.000006 -0.000006 -0.000006 -0.000004 -0.000004 -0.000005 -0.000005 -0.000005 -0.000005 -0.000003 -0.000003 -0.000003 -0.000003 -0.000003 -0.000003 -0.000002 -0.000002 -0.000002 -0.000002 -0.000002 -0.000002 -0.000002 -0.000002 -0.000002 -0.000002 -0.000002 -0.000002 -0.000001 -0.000001 -0.000001 -0.000001 -0.000001 -0.000001 -0.000001 -0.000001 -0.000001 -0.000001 -0.000001 -0.000001 -0.000001 -0.000001 -0.000001 -0.000001 -0.000001 -0.000001 -0.000000 -0.000000 -0.000000 -0.000000 -0.000000 -0.000000 -0.000000 -0.000000 -0.000000 -0.000000 -0.000000 -0.000000 -0.000000 -0.000000 -0.000000 -0.000000 -0.000000 -0.000000 -0.000000 -0.000000 -0.000000 -0.000000 -0.000000 -0.000000 -0.000000 -0.000000 -0.000000 -0.000000 -0.000000 -0.000000 -0.000000 -0.000000 -0.000000 -0.000000 -0.000000 -0.000000 -0.000000 -0.000000 -0.000000 -0.000000 -0.000000 -0.000000 -0.000000 -0.000000 -0.000000 -0.000000 -0.000000 -0.000000 -0.000000 -0.000000 -0.000000 -0.000000 -0.000000 -0.000000 -0.000000 -0.000000 -0.000000 -0.000000 -0.000000 -0.000000 -0.000000 -0.000000 -0.000000 -0.000000 -0.000000 -0.000000 -0.000000 -0.000000 -0.000000 -0.000000 -0.000000 -0.000000 -0.000000 -0.000000 -0.000000 -0.000000 -0.000000 -0.000000 -0.000000 -0.000000 -0.000000 -0.000000 -0.000000 -0.000000 -0.000000 -0.000000 -0.000000 -0.000000 -0.000000 -0.000000 -0.000000 -0.000000 -0.000000 -0.000000 -0.000000 -0.000000 -0.000000 -0.000000 -0.000000 -0.000000 -0.000000 -0.000000 -0.000000 -0.000000 -0.000000 -0.000000 -0.000000 -0.000000 -0.000000 -0.000000 -0.000000 0.000000 0.000000 0.000000 -0.000000 -0.000000 -0.000000 0.000000 0.000000 0.000000 -0.000000 -0.000000 -0.000000 0.000000 0.000000 0.000000 -0.000000 -0.000000 -0.000000 0.000000 0.000000 0.000000 -0.000000 -0.000000 -0.000000 0.000000 0.000000 0.000000 -0.000000 -0.000000 -0.000000 0.000000 0.000000 0.000000 -0.000000 -0.000000 -0.000000 0.000000 0.000000 0.000000 -0.000000 -0.000000 -0.000000 0.000000 0.000000 0.000000 -0.000000 -0.000000 -0.000000 0.000000 0.000000 0.000000 -0.000000 -0.000000 -0.000000 0.000000 0.000000 0.000000 -0.000000 -0.000000 -0.000000 0.000000 0.000000 0.000000 -0.000000 -0.000000 -0.000000 0.000000 0.000000 0.000000 -0.000000 -0.000000 -0.000000 0.000000 0.000000 0.000000 -0.000000 -0.000000 -0.000000 0.000000 0.000000 0.000000 -0.000000 -0.000000 -0.000000 0.000000 0.000000 0.000000 -0.000000 -0.000000 -0.000000 0.000000 0.000000 0.000000 -0.000000 -0.000000 -0.000000 0.000000 0.000000 0.000000 -0.000000 -0.000000 -0.000000 0.000000 0.000000 0.000000 -0.000000 -0.000000 -0.000000 0.000000 0.000000 0.000000 -0.000000 -0.000000 -0.000000 0.000000 0.000000 0.000000 -0.000000 -0.000000 -0.000000 0.000000 0.000000 0.000000 -0.000000 -0.000000 -0.000000 0.000000 0.000000 0.000000 -0.000000 -0.000000 -0.000000 0.000000 0.000000 0.000000 -0.000000 -0.000000 -0.000000 0.000000 0.000000 0.000000 -0.000000 -0.000000 -0.000000 0.000000 0.000000 0.000000 -0.000000 -0.000000 -0.000000 0.000000 0.000000 0.000000 -0.000000 -0.000000 -0.000000 0.000000 0.000000 0.000000 -0.000000 -0.000000 -0.000000 0.000000 0.000000 0.000000 -0.000000 -0.000000 -0.000000 0.000000 0.000000 0.000000 -0.000000 -0.000000 -0.000000 0.000000 0.000000 0.000000 -0.000000 -0.000000 -0.000000 0.000000 0.000000 0.000000 -0.000000 -0.000000 -0.000000 0.000000 0.000000 0.000000 -0.000000 -0.000000 -0.000000 0.000000 0.000000 0.000000 -0.000000 -0.000000 -0.000000 0.000000 0.000000 0.000000 -0.000000 -0.000000 -0.000000 0.000000 0.000000 0.000000 -0.000000 -0.000000 -0.000000 0.000000 0.000000 0.000000 -0.000000 -0.000000 -0.000000 0.000000 0.000000 0.000000 0.000000 -0.000000 -0.000000 0.000000 0.000000 0.000000 0.000000 -0.000000 0.000000 0.000000 0.000000 0.000000 0.000000 0.000000 0.000000 0.000000 0.000000 0.000000 0.000000 0.000000 0.000000 0.000000 0.000000 0.000000 0.000000 0.000000 0.000000 0.000000 0.000000 0.000000 0.000000 0.000000 0.000000 0.000000 0.000000 0.000000 0.000000 0.000000 0.000000 0.000000 0.000000 0.000000 0.000000 0.000000 0.000000 0.000000 0.000000 0.000000 0.000000 0.000000 0.000000 0.000000 0.000000 0.000000 0.000000 0.000000 0.000000 0.000000 0.000000 0.000000 0.000000 0.000000 0.000000 0.000000 0.000000 0.000000 0.000001 0.000001 0.000001 0.000001 0.000001 0.000001 0.000001 0.000001 0.000001 0.000001 0.000001 0.000001 0.000002 0.000002 0.000002 0.000002 0.000002 0.000002 0.000003 0.000003 0.000003 0.000003 0.000003 0.000003 0.000005 0.000006 0.000006 0.000006 0.000006 0.000006 0.000009 0.000010 0.000010 0.000010 0.000010 0.000010 0.000016 0.000017 0.000017 0.000017 0.000017 0.000017 0.000027 0.000028 0.000030 0.000030 0.000030 0.000030 0.000046 0.000048 0.000050 0.000050 0.000050 0.000050 0.000077 0.000080 0.000083 0.000083 0.000083 0.000083 0.000127 0.000131 0.000136 0.000137 0.000137 0.000137 0.000207 0.000214 0.000222 0.000223 0.000223 0.000223 0.000335 0.000345 0.000357 0.000360 0.000360 0.000360 0.000534 0.000550 0.000569 0.000572 0.000572 0.000572 0.000844 0.000867 0.000895 0.000900 0.000900 0.000900 0.001316 0.001351 0.001391 0.001399 0.001399 0.001399 0.002029 0.002080 0.002139 0.002150 0.002150 0.002150 0.003093 0.003166 0.003250 0.003265 0.003265 0.003265 0.004658 0.004761 0.004880 0.004902 0.004902 0.004902 0.006931 0.007075 0.007241 0.007271 0.007271 0.007271 0.010191 0.010389 0.010616 0.010658 0.010658 0.010658 0.014803 0.015070 0.015377 0.015433 0.015433 0.015433 0.021240 0.021594 0.022002 0.022076 0.022076 0.022076 0.030097 0.030560 0.031093 0.031189 0.031189 0.031189 0.042114 0.042708 0.043392 0.043515 0.043515 0.043515 0.058181 0.058929 0.059788 0.059943 0.059943 0.059943 0.079339 0.080262 0.081321 0.081511 0.081511 0.081511 0.106770 0.107884 0.109161 0.109390 0.109390 0.109390 0.141760 0.143072 0.144574 0.144843 0.144843 0.144843 0.185638 0.187142 0.188860 0.189167 0.189167 0.189167 0.239682 0.241350 0.243254 0.243594 0.243594 0.243594 0.304984 0.306765 0.308793 0.309156 0.309156 0.309156 0.382277 0.384087 0.386142 0.386509 0.386509 0.386509 0.471716 0.473433 0.475375 0.475721 0.475721 0.475721 0.572626 0.574087 0.575728 0.576020 0.576020 0.576020 0.683223 0.684220 0.685326 0.685520 0.685520 0.685520 0.800326 0.800613 0.800901 0.800948 0.800948 0.800948 0.919088 0.918386 0.917538 0.917381 0.917381 0.917381 1.032783 1.030791 1.028466 1.028044 1.028044 1.028044 1.132667 1.129085 1.124942 1.124195 1.124195 1.124195 1.207984 1.202534 1.196259 1.195131 1.195131 1.195131 1.246126 1.238584 1.229927 1.228373 1.228373 1.228373 1.233002 1.223229 1.212036 1.210029 1.210029 1.210029 1.153616 1.141595 1.127850 1.125387 1.125387 1.125387 0.992882 0.978745 0.962602 0.959713 0.959713 0.959713 0.736635 0.720689 0.702501 0.699248 0.699248 0.699248 0.372802 0.355542 0.335878 0.332363 0.332363 0.332363 -0.107328 -0.125218 -0.145578 -0.149215 -0.149215 -0.149215 -0.707846 -0.725510 -0.745589 -0.749174 -0.749174 -0.749174 -1.427068 -1.443509 -1.462176 -1.465506 -1.465506 -1.465506 -2.256615 -2.270752 -2.286777 -2.289634 -2.289634 -2.289634 -3.180845 -3.191576 -3.203710 -3.205870 -3.205870 -3.205870 -4.176728 -4.183010 -4.190070 -4.191321 -4.191321 -4.191321 -5.214242 -5.215172 -5.216136 -5.216299 -5.216299 -5.216299 -6.257330 -6.252228 -6.246327 -6.245263 -6.245263 -6.245263 -7.265386 -7.253864 -7.240662 -7.238295 -7.238295 -7.238295 -8.195218 -8.177239 -8.156698 -8.153020 -8.153020 -8.153020 -9.003372 -8.979284 -8.951798 -8.946881 -8.946881 -8.946881 -9.648656 -9.619204 -9.585618 -9.579611 -9.579611 -9.579611 -10.094673 -10.060997 -10.022595 -10.015727 -10.015727 -10.015727 -10.312172 -10.275803 -10.234294 -10.226867 -10.226867 -10.226867 -10.280978 -10.243871 -10.201409 -10.193800 -10.193800 -10.193800 -9.991261 -9.955963 -9.915277 -9.907957 -9.907957 -9.907957 -9.443843 -9.413981 -9.378810 -9.372408 -9.372408 -9.372408 -8.649003 -8.630577 -8.606812 -8.602288 -8.602288 -8.602288 -7.622682 -7.627341 -7.625762 -7.624802 -7.624802 -7.624802 -6.377346 -6.431179 -6.473432 -6.479189 -6.479189 -6.479189 -4.898990 -5.070529 -5.199796 -5.217346 -5.217346 -5.217346 -3.074512 -3.600002 -3.865037 -3.899897 -3.899897 -3.899897 21984.295546 21984.295546 21984.295546 21838.991083 18961.607254 14193.616199 10620.035405 11877.062096 11929.787418 9891.468974 11945.622870 12047.966024 10472.363396 10747.630621 10497.874686 9295.551198 7639.532654 5325.675065 5044.652679 2004.290209 2512.634994 -981.441448 1656.252133 2144.050210 -1539.251419 196.808708 943.133282 -618.613183 1259.218474 1349.755085 -1662.200781 4115.174797 1403.380768 1058.754970 -2722.442791 -3003.770527 183.559321 1914.445950 2620.301860 2987.665638 3730.517045 1790.079118 -2319.498673 -1586.840065 -55.545119 670.354882 1330.278725 2699.032322 3249.625344 -1630.245145 -3126.504867 -1529.064055 -899.937838 -608.531356 -461.846990 -378.637217 -323.302242 -280.021139 -241.926675 -206.272026 -172.207236 -139.732289 -109.191154 -81.020228 -55.621051 -33.297320 -14.227696 1.539940 14.080706 23.576273 30.293214 34.558828 36.736645 37.203427 36.329043 34.460154 31.908197 28.941709 25.782704 22.606517 19.544404 16.688088 14.095499 11.797008 9.801610 8.102643 6.682761 5.518032 4.581117 3.843570 3.277364 2.855767 2.553707 2.347778 2.216010 2.137514 2.092098 2.059876 2.020862 1.954371 1.837757 1.643357 1.330719 0.827343 -0.062900 -1.222550 -2.017904 -2.452419 -2.530711 -2.530711 -2.530711 22003.220909 22003.220909 22003.220909 21932.104757 20302.952685 16508.044813 13268.747454 12693.078108 13578.601502 12977.662833 14060.528994 13857.412726 13418.168800 13194.913189 12335.222561 12501.785193 11932.785357 11593.054336 11635.369709 9819.337937 9694.276809 8767.046677 9306.358735 9601.880812 8641.326127 8534.136721 7968.364666 7142.473674 6691.667084 5809.999472 4897.363151 5083.041424 4658.940512 3834.461936 2424.189526 2060.640414 2362.223016 2759.066440 2897.512499 2850.887415 2671.082488 1612.064923 44.226390 73.591294 458.663014 766.401421 1045.362833 1325.304813 1209.926197 -343.524225 -1041.488915 -823.628533 -608.476854 -480.048234 -403.812934 -352.216646 -311.245230 -274.530227 -239.465986 -205.239347 -171.875200 -139.766300 -109.431105 -81.382743 -56.056474 -33.771332 -14.713846 1.063021 13.630170 23.165256 29.930903 34.250613 36.484439 37.006132 36.183139 34.360350 31.848076 28.914335 25.781132 22.624205 19.575495 16.727588 14.139344 11.842055 9.845566 8.143951 6.720470 5.551659 4.610515 3.868816 3.298662 2.873373 2.567878 2.358746 2.223974 2.142664 2.094680 2.060339 2.020171 1.954691 1.844006 1.666834 1.398271 1.006447 0.472669 -0.148453 -0.716143 -1.080910 -1.148282 -1.148282 -1.148282 22023.863394 22023.863394 22023.863394 21986.294811 21502.742511 20162.877113 19076.151911 18394.794605 18231.076597 17832.762374 17569.553037 17366.994696 17126.242942 16823.547977 16474.342939 16178.211468 15861.353221 15517.542373 15137.050366 14648.519125 14190.992247 13769.421319 13467.162273 13122.543389 12586.900130 11941.491662 11172.614018 10278.148307 9351.739339 8408.331351 7542.877565 6881.679962 6232.319800 5488.768383 4737.123420 4148.977964 3754.299062 3451.015092 3146.803000 2799.103933 2369.406117 1822.281644 1288.261859 984.495088 879.480156 854.148969 838.977879 770.617994 548.668339 160.952353 -164.579259 -313.331545 -358.903037 -363.645123 -350.219130 -327.638277 -299.985109 -269.389134 -237.164082 -204.288057 -171.597707 -139.849856 -109.724163 -81.804251 -56.556171 -34.312991 -15.268635 0.518861 13.115936 22.695831 29.516754 33.897926 36.195456 36.779678 36.015277 34.245113 31.778207 28.881964 25.778369 22.643598 19.610364 16.772223 14.189090 11.893304 9.895674 8.191116 6.763581 5.590144 4.644191 3.897756 3.323088 2.893569 2.584134 2.371321 2.233089 2.148522 2.097530 2.060616 2.018793 1.953700 1.847992 1.686097 1.455645 1.150595 0.777850 0.364976 -0.051654 -0.350853 -0.412878 -0.412878 -0.412878 22029.738304 22029.738304 22029.738304 21997.173141 21626.926279 20722.156571 19931.471906 19358.739554 18896.040789 18458.095203 18137.664674 17905.387553 17677.175968 17400.495850 17076.633119 16753.270072 16411.291621 16048.729046 15661.155962 15226.037501 14788.770771 14367.094226 13980.007661 13553.582145 13000.030598 12320.050650 11523.469734 10629.655984 9688.361839 8746.341130 7879.064519 7135.167377 6439.502918 5719.760425 5012.413722 4409.071679 3936.771761 3549.789747 3184.902586 2796.766445 2355.295298 1862.058160 1403.861152 1095.219454 938.964943 867.708848 812.689508 709.385420 500.739614 199.488331 -75.756152 -244.757375 -321.918427 -345.746440 -341.874724 -323.792524 -298.218417 -268.581022 -236.802527 -204.140437 -171.558143 -139.869254 -109.778508 -81.880442 -56.645853 -34.409976 -15.367898 0.421508 13.023917 22.611800 29.442581 33.834722 36.143629 36.739024 35.985101 34.224355 31.765574 28.876054 25.777773 22.646985 19.616539 16.780163 14.197961 11.902456 9.904633 8.199557 6.771303 5.597042 4.650230 3.902948 3.327470 2.897193 2.587051 2.373577 2.234722 2.149568 2.098030 2.060641 2.018488 1.953388 1.848391 1.688800 1.464034 1.170932 0.818332 0.429604 0.031226 -0.256606 -0.314669 -0.314669 -0.314669 22029.738304 22029.738304 22029.738304 21997.173141 21626.926279 20722.156571 19931.471906 19358.739554 18896.040789 18458.095203 18137.664674 17905.387553 17677.175968 17400.495850 17076.633119 16753.270072 16411.291621 16048.729046 15661.155962 15226.037501 14788.770771 14367.094226 13980.007661 13553.582145 13000.030598 12320.050650 11523.469734 10629.655984 9688.361839 8746.341130 7879.064519 7135.167377 6439.502918 5719.760425 5012.413722 4409.071679 3936.771761 3549.789747 3184.902586 2796.766445 2355.295298 1862.058160 1403.861152 1095.219454 938.964943 867.708848 812.689508 709.385420 500.739614 199.488331 -75.756152 -244.757375 -321.918427 -345.746440 -341.874724 -323.792524 -298.218417 -268.581022 -236.802527 -204.140437 -171.558143 -139.869254 -109.778508 -81.880442 -56.645853 -34.409976 -15.367898 0.421508 13.023917 22.611800 29.442581 33.834722 36.143629 36.739024 35.985101 34.224355 31.765574 28.876054 25.777773 22.646985 19.616539 16.780163 14.197961 11.902456 9.904633 8.199557 6.771303 5.597042 4.650230 3.902948 3.327470 2.897193 2.587051 2.373577 2.234722 2.149568 2.098030 2.060641 2.018488 1.953388 1.848391 1.688800 1.464034 1.170932 0.818332 0.429604 0.031226 -0.256606 -0.314669 -0.314669 -0.314669 22029.738304 22029.738304 22029.738304 21997.173141 21626.926279 20722.156571 19931.471906 19358.739554 18896.040789 18458.095203 18137.664674 17905.387553 17677.175968 17400.495850 17076.633119 16753.270072 16411.291621 16048.729046 15661.155962 15226.037501 14788.770771 14367.094226 13980.007661 13553.582145 13000.030598 12320.050650 11523.469734 10629.655984 9688.361839 8746.341130 7879.064519 7135.167377 6439.502918 5719.760425 5012.413722 4409.071679 3936.771761 3549.789747 3184.902586 2796.766445 2355.295298 1862.058160 1403.861152 1095.219454 938.964943 867.708848 812.689508 709.385420 500.739614 199.488331 -75.756152 -244.757375 -321.918427 -345.746440 -341.874724 -323.792524 -298.218417 -268.581022 -236.802527 -204.140437 -171.558143 -139.869254 -109.778508 -81.880442 -56.645853 -34.409976 -15.367898 0.421508 13.023917 22.611800 29.442581 33.834722 36.143629 36.739024 35.985101 34.224355 31.765574 28.876054 25.777773 22.646985 19.616539 16.780163 14.197961 11.902456 9.904633 8.199557 6.771303 5.597042 4.650230 3.902948 3.327470 2.897193 2.587051 2.373577 2.234722 2.149568 2.098030 2.060641 2.018488 1.953388 1.848391 1.688800 1.464034 1.170932 0.818332 0.429604 0.031226 -0.256606 -0.314669 -0.314669 -0.314669 13270.677377 13270.677377 13270.677377 13300.454635 13615.549846 13701.880144 13009.943750 13173.321760 12062.012383 11573.112317 12176.982748 10975.578841 9541.941401 9781.662926 9189.989530 6991.793032 6741.548891 5770.843091 5782.385475 5250.644264 4164.496790 3126.520422 898.474112 -151.285976 13.921427 117.728255 199.837974 308.125471 470.516084 731.229817 1226.150752 1486.524869 -409.485153 -1446.074287 -693.152779 -76.156955 547.160961 1278.932557 371.946231 -1210.241847 -887.582466 -213.515615 544.289844 671.808539 -1134.124347 -1612.745435 -689.779133 -380.877897 -1937.918680 -2655.547059 -2128.043399 -1820.886864 -1643.439892 -1527.523660 -1446.057271 -1386.399051 13415.773285 13415.773285 13415.773285 13477.524048 14052.238770 13985.235327 12608.386470 16463.743944 11597.221664 12447.350130 11541.845028 12224.598370 14960.275246 13898.399765 12046.678338 13150.775412 15310.503263 12624.434730 15388.901987 14342.826321 13288.522893 14193.830812 15138.622046 13460.762639 12962.097677 15462.034222 15282.869182 13542.044383 11376.214520 13447.358374 13711.854695 14601.472974 14127.192913 15162.547617 13808.852751 13850.423267 11267.182776 13558.265379 13848.281485 13461.557198 13832.256266 13387.744792 14534.633981 13227.749373 13434.237886 14414.278628 13656.704840 12624.239369 14156.705414 14003.161726 13929.822622 13432.156422 14733.795236 2978.573892 -394.201888 140.106590 13551.972385 13551.972385 13551.972385 13585.253499 13985.239587 14793.095023 11338.622956 11693.818980 11459.236765 11667.096275 13116.788824 12056.238992 13231.496136 12382.122627 10692.009170 10794.197541 12127.741140 14517.507728 12251.086365 12670.163058 14086.217911 13229.507593 13037.774704 12243.650664 11603.782427 13951.830129 12483.986653 15159.747303 13138.372579 14307.556772 13218.354174 13363.347022 13516.398422 15022.429167 14818.086697 14285.019077 13155.835771 12267.205915 14554.439937 14877.605829 15688.694912 15244.594434 14080.528445 14688.600979 14236.684367 14326.935240 15193.873462 12953.758000 14226.611886 13258.021206 14674.582385 14500.111514 6321.794727 10168.922823 -86.009469 47.690657 13591.852178 13591.852178 13591.852178 13620.822127 13833.931275 13783.981686 12847.540847 14793.471490 11457.856730 11906.245399 9705.926977 9751.980115 12101.180998 14066.069554 12239.941299 12983.939080 14512.662648 14985.694912 14336.527133 14589.647571 14498.924458 13674.624692 12863.861669 14620.251148 14983.946570 14826.806807 12562.223074 12848.633508 14414.934103 13377.831810 13184.331434 12913.640508 15824.676732 14198.689071 13078.461073 16105.836005 14268.466703 11906.949805 12260.223528 14308.808832 11020.661772 12795.363781 14699.996411 15004.816355 15542.790698 13240.325852 16331.113949 14249.426563 15134.706103 13412.069261 11707.575667 13042.935665 762.049117 11134.348286 3667.016841 4282.376203 13625.404331 13625.404331 13625.404331 13627.818506 13511.149507 12661.722587 1