<VTKFile type="PolyData">
<PolyData>
<Piece NumberOfPoints="8632" NumberOfVerts="8632" NumberOfLines="0" NumberOfStrips="0" NumberOfPolys="0">
<PointData>
<DataArray type="Float64" Name="Pressure" format="ascii">
 6582.856264 6582.856264 6582.856264 6629.128070 7136.452500 8389.731148 9558.637772 10539.253615 11265.338633 11720.144722 11924.896727 11930.472780 11805.703809 11591.887761 11306.469977 10966.543819 10595.910183 10215.418142 9835.207106 9455.722953 9074.509406 8691.823816 8312.497700 7943.349962 7587.999665 7244.400764 6906.952672 6570.928005 6234.925531 5900.315883 5569.566342 5244.883849 4927.413545 4617.071677 4312.859505 4013.502278 3718.229774 3427.153330 3140.857610 2860.695070 2590.514225 2330.636683 2074.187548 1826.112150 1594.235634 1363.241392 1116.175249 855.519301 642.184306 447.456608 187.179750 -67.208192 -277.541351 -521.651980 -749.575774 -864.287252 -861.965857 -784.596104 -670.363744 -544.897537 -424.115913 -317.360204 -229.034512 -159.889042 -108.278488 -71.320277 -45.794724 -28.716107 -17.607066 -10.563694 -6.203398 -3.565264 -2.004744 -1.102370 -0.592473 -0.311069 -0.159471 -0.079793 -0.038954 -0.018549 -0.008613 -0.003899 -0.001721 -0.000740 -0.000310 -0.000127 -0.000051 -0.000020 -0.000007 -0.000003 -0.000001 -0.000000 -0.000000 -0.000000 -0.000000 -0.000000 -0.000000 -0.000000 -0.000000 -0.000000 -0.000000 -0.000000 -0.000000 -0.000000 -0.000000 -0.000000 -0.000000 -0.000000 -0.000000 -0.000000 -0.000000 6582.856264 6582.856264 6582.856264 6629.128070 7136.452500 8389.731148 9558.637772 10539.253615 11265.338633 11720.144722 11924.896727 11930.472780 11805.703809 11591.887761 11306.469977 10966.543819 10595.910183 10215.418142 9835.207106 9455.722953 9074.509406 8691.823816 8312.497700 7943.349962 7587.999665 7244.400764 6906.952672 6570.928005 6234.925531 5900.315883 5569.566342 5244.883849 4927.413545 4617.071677 4312.859505 4013.502278 3718.229774 3427.153330 3140.857610 2860.695070 2590.514225 2330.636683 2074.187548 1826.112150 1594.235634 1363.241392 1116.175249 855.519301 642.184306 447.456608 187.179750 -67.208192 -277.541351 -521.651980 -749.575774 -864.287252 -861.965857 -784.596104 -670.363744 -544.897537 -424.115913 -317.360204 -229.034512 -159.889042 -108.278488 -71.320277 -45.794724 -28.716107 -17.607066 -10.563694 -6.203398 -3.565264 -2.004744 -1.102370 -0.592473 -0.311069 -0.159471 -0.079793 -0.038954 -0.018549 -0.008613 -0.003899 -0.001721 -0.000740 -0.000310 -0.000127 -0.000051 -0.000020 -0.000007 -0.000003 -0.000001 -0.000000 -0.000000 -0.000000 -0.000000 -0.000000 -0.000000 -0.000000 -0.000000 -0.000000 -0.000000 -0.000000 -0.000000 -0.000000 -0.000000 -0.000000 -0.000000 -0.000000 -0.000000 -0.000000 -0.000000 6582.856264 6582.856264 6582.856264 6629.128070 7136.452500 8389.731148 9558.637772 10539.253615 11265.338633 11720.144722 11924.896727 11930.472780 11805.703809 11591.887761 11306.469977 10966.543819 10595.910183 10215.418142 9835.207106 9455.722953 9074.509406 8691.823816 8312.497700 7943.349962 7587.999665 7244.400764 6906.952672 6570.928005 6234.925531 5900.315883 5569.566342 5244.883849 4927.413545 4617.071677 4312.859505 4013.502278 3718.229774 3427.153330 3140.857610 2860.695070 2590.514225 2330.636683 2074.187548 1826.112150 1594.235634 1363.241392 1116.175249 855.519301 642.184306 447.456608 187.179750 -67.208192 -277.541351 -521.651980 -749.575774 -864.287252 -861.965857 -784.596104 -670.363744 -544.897537 -424.115913 -317.360204 -229.034512 -159.889042 -108.278488 -71.320277 -45.794724 -28.716107 -17.607066 -10.563694 -6.203398 -3.565264 -2.004744 -1.102370 -0.592473 -0.311069 -0.159471 -0.079793 -0.038954 -0.018549 -0.008613 -0.003899 -0.001721 -0.000740 -0.000310 -0.000127 -0.000051 -0.000020 -0.000007 -0.000003 -0.000001 -0.000000 -0.000000 -0.000000 -0.000000 -0.000000 -0.000000 -0.000000 -0.000000 -0.000000 -0.000000 -0.000000 -0.000000 -0.000000 -0.000000 -0.000000 -0.000000 -0.000000 -0.000000 -0.000000 -0.000000 6693.804590 6693.804590 6693.804590 6738.797172 7250.842233 8513.992731 9669.315541 10636.264346 11348.761791 11785.789783 11971.155772 11956.827294 11827.531031 11610.047585 11309.293487 10951.995862 10570.194942 10188.161191 9811.896065 9436.354277 9056.144937 8672.813611 8292.718378 7923.750528 7567.673043 7220.405933 6876.346278 6533.355547 6192.665736 5855.973183 5523.804994 5196.168008 4873.370406 4556.139952 4245.197739 3940.787702 3642.915824 3351.749601 3067.375333 2789.702368 2524.773800 2274.347113 2021.224461 1775.674381 1556.419022 1338.712324 1100.221584 817.356887 611.365358 450.826469 167.109492 -97.551822 -269.370390 -528.605641 -789.001127 -901.577818 -883.897989 -795.229047 -674.988170 -546.780044 -424.771400 -317.477115 -228.932113 -159.717941 -108.107476 -71.176648 -45.685000 -28.637376 -17.553115 -10.528044 -6.180550 -3.551013 -1.996079 -1.097231 -0.589500 -0.309392 -0.158549 -0.079299 -0.038696 -0.018418 -0.008549 -0.003868 -0.001707 -0.000734 -0.000308 -0.000126 -0.000050 -0.000019 -0.000007 -0.000003 -0.000001 -0.000000 -0.000000 -0.000000 -0.000000 -0.000000 -0.000000 -0.000000 -0.000000 -0.000000 0.000000 0.000000 -0.000000 -0.000000 -0.000000 -0.000000 -0.000000 -0.000000 -0.000000 -0.000000 -0.000000 7944.608905 7944.608905 7944.608905 8015.916369 8743.078922 9959.313641 10812.195762 11478.992249 12073.261523 12262.198284 12212.283670 11938.366391 11979.227830 11753.420796 11310.516647 10745.085932 10274.454478 9904.876643 9604.429649 9272.804371 8901.827337 8518.805255 8166.739134 7837.283499 7471.903300 7030.772673 6536.502344 6068.244891 5677.764683 5350.809472 5032.306639 4672.441709 4261.848305 3831.463747 3422.655401 3066.084951 2762.722616 2496.554357 2251.158012 1982.381326 1743.494736 1615.783756 1348.669351 1021.334082 1059.004288 1010.550536 950.649419 254.279580 119.809646 1017.542363 -236.819144 -777.046420 204.214846 -596.822620 -1421.549566 -1356.673883 -1128.142449 -901.663015 -720.491592 -565.110361 -431.081892 -318.528916 -227.852208 -157.981809 -106.388050 -69.738888 -44.589683 -27.853027 -17.016487 -10.173909 -5.953837 -3.409755 -1.910278 -1.046395 -0.560122 -0.292838 -0.149459 -0.074437 -0.036165 -0.017135 -0.007916 -0.003565 -0.001565 -0.000670 -0.000279 -0.000113 -0.000045 -0.000017 -0.000007 -0.000002 -0.000001 -0.000000 -0.000000 -0.000000 -0.000000 -0.000000 -0.000000 -0.000000 -0.000000 0.000000 -0.000000 -0.000000 -0.000000 -0.000000 -0.000000 -0.000000 -0.000000 -0.000000 -0.000000 -0.000000 -0.000000 9872.521083 9872.521083 9872.521083 10021.494683 10820.836106 11653.999171 12885.800792 12355.873663 11920.580674 11457.816684 11404.173657 10293.318209 11467.800734 11595.971226 10945.483696 10659.861700 10302.822106 10048.572816 9807.630544 9351.040261 8813.775679 8478.728589 8224.498720 8037.868691 7579.569828 6873.084608 6079.400844 5432.865179 5029.092807 4756.291648 4449.811609 4007.787801 3429.952108 2818.411351 2327.339335 1989.648498 1757.192668 1551.024520 1371.108652 934.059961 481.079930 758.738434 -76.016936 -447.626707 -543.126378 387.288932 1359.330261 -755.822545 -2181.441697 1342.177723 -1620.489987 -2497.500412 1185.320733 -1094.342841 -2691.295228 -2035.402216 -1532.572957 -1072.095874 -790.124035 -593.448201 -441.505997 -321.159394 -227.266491 -156.302334 -104.575040 -68.178398 -43.387089 -26.988006 -16.423974 -9.783099 -5.704019 -3.254430 -1.816178 -0.990811 -0.528110 -0.274870 -0.139634 -0.069206 -0.033453 -0.015768 -0.007245 -0.003245 -0.001416 -0.000603 -0.000250 -0.000101 -0.000040 -0.000015 -0.000006 -0.000002 -0.000001 -0.000000 -0.000000 -0.000000 -0.000000 -0.000000 -0.000000 -0.000000 0.000000 0.000000 0.000000 0.000000 -0.000000 -0.000000 -0.000000 -0.000000 -0.000000 -0.000000 -0.000000 -0.000000 -0.000000 -0.000000 -0.000000 -0.000000 -0.000000 -0.000000 -0.000000 -0.000000 -0.000000 -0.000000 -0.000000 -0.000000 -0.000000 -0.000000 -0.000000 -0.000000 -0.000000 -0.000000 -0.000000 -0.000000 -0.000000 -0.000000 -0.000000 -0.000000 -0.000000 -0.000000 -0.000000 -0.000000 -0.000000 -0.000000 -0.000000 -0.000000 -0.000000 -0.000000 -0.000000 -0.000000 -0.000000 -0.000000 -0.000000 -0.000000 -0.000000 -0.000000 -0.000000 -0.000000 -0.000000 -0.000000 -0.000000 -0.000000 -0.000000 -0.000000 -0.000000 -0.000000 -0.000000 -0.000000 -0.000000 -0.000000 -0.000000 -0.000000 -0.000000 -0.000000 -0.000000 -0.000000 -0.000000 -0.000000 -0.000000 -0.000000 -0.000000 -0.000000 -0.000000 -0.000000 -0.000000 -0.000000 -0.000000 -0.000000 -0.000000 -0.000000 -0.000000 -0.000000 -0.000000 -0.000000 -0.000000 -0.000000 -0.000000 -0.000000 -0.000000 -0.000000 -0.000000 -0.000000 -0.000000 -0.000000 -0.000000 -0.000000 -0.000000 -0.000000 -0.000000 -0.000000 -0.000000 -0.000000 -0.000000 -0.000000 -0.000000 -0.000000 -0.000000 -0.000000 -0.000000 -0.000000 -0.000000 -0.000000 -0.000000 -0.000000 -0.000000 -0.000000 -0.000000 -0.000000 -0.000000 -0.000000 -0.000000 -0.000000 -0.000000 -0.000000 -0.000000 -0.000000 -0.000000 -0.000000 -0.000000 -0.000000 -0.000000 -0.000000 -0.000000 -0.000000 -0.000000 -0.000000 -0.000000 -0.000000 -0.000000 -0.000000 -0.000000 -0.000000 -0.000000 -0.000000 -0.000000 -0.000000 -0.000000 -0.000000 -0.000000 -0.000000 -0.000000 -0.000000 -0.000000 -0.000000 -0.000000 -0.000000 -0.000000 -0.000000 -0.000000 -0.000000 -0.000000 -0.000000 -0.000000 -0.000000 -0.000000 -0.000000 -0.000000 -0.000000 -0.000000 -0.000000 -0.000000 -0.000000 -0.000000 -0.000000 -0.000000 -0.000000 -0.000000 -0.000000 -0.000000 -0.000000 -0.000000 -0.000000 -0.000000 -0.000000 -0.000000 -0.000000 -0.000000 -0.000000 -0.000000 -0.000000 -0.000000 -0.000000 -0.000000 -0.000000 -0.000000 -0.000000 -0.000000 -0.000000 -0.000000 -0.000000 -0.000000 -0.000000 -0.000000 -0.000000 -0.000000 -0.000000 -0.000000 -0.000000 -0.000000 -0.000000 -0.000000 -0.000000 -0.000000 -0.000000 -0.000000 -0.000000 -0.000000 -0.000000 -0.000000 -0.000000 -0.000000 -0.000000 -0.000000 -0.000000 -0.000000 -0.000000 -0.000000 -0.000000 -0.000000 -0.000000 -0.000000 -0.000000 -0.000000 -0.000000 -0.000000 -0.000000 -0.000000 -0.000000 -0.000000 -0.000000 -0.000000 -0.000000 -0.000000 -0.000000 -0.000000 -0.000000 -0.000000 -0.000000 -0.000000 -0.000000 -0.000000 -0.000000 -0.000000 -0.000000 -0.000000 -0.000000 -0.000000 -0.000000 -0.000000 -0.000000 -0.000000 -0.000000 -0.000000 -0.000000 -0.000000 -0.000000 -0.000000 -0.000000 -0.000000 -0.000000 -0.000000 -0.000000 -0.000000 -0.000000 -0.000000 -0.000000 -0.000000 -0.000000 0.000000 0.000000 0.000000 -0.000000 -0.000000 -0.000000 0.000000 0.000000 0.000000 -0.000000 -0.000000 -0.000000 0.000000 0.000000 0.000000 -0.000000 -0.000000 -0.000000 0.000000 0.000000 0.000000 -0.000000 -0.000000 -0.000000 0.000000 0.000000 0.000000 -0.000000 -0.000000 -0.000000 0.000000 0.000000 0.000000 -0.000000 -0.000000 -0.000000 0.000000 0.000000 0.000000 -0.000000 -0.000000 -0.000000 0.000000 0.000000 0.000000 -0.000000 -0.000000 -0.000000 0.000000 0.000000 0.000000 -0.000000 -0.000000 -0.000000 0.000000 0.000000 0.000000 -0.000000 -0.000000 -0.000000 0.000000 0.000000 0.000000 -0.000000 -0.000000 -0.000000 0.000000 0.000000 0.000000 -0.000000 -0.000000 -0.000000 0.000000 0.000000 0.000000 -0.000000 -0.000000 -0.000000 0.000000 0.000000 0.000000 -0.000000 -0.000000 -0.000000 0.000000 0.000000 0.000000 -0.000000 -0.000000 -0.000000 0.000000 0.000000 0.000000 -0.000000 -0.000000 -0.000000 0.000000 0.000000 0.000000 -0.000000 -0.000000 -0.000000 0.000000 0.000000 0.000000 -0.000000 -0.000000 -0.000000 0.000000 0.000000 0.000000 -0.000000 -0.000000 -0.000000 0.000000 0.000000 0.000000 -0.000000 -0.000000 -0.000000 0.000000 0.000000 0.000000 -0.000000 -0.000000 -0.000000 0.000000 0.000000 0.000000 -0.000000 -0.000000 -0.000000 0.000000 0.000000 0.000000 -0.000000 -0.000000 -0.000000 0.000000 0.000000 0.000000 -0.000000 -0.000000 -0.000000 0.000000 0.000000 0.000000 -0.000000 -0.000000 -0.000000 0.000000 0.000000 0.000000 -0.000000 -0.000000 -0.000000 0.000000 0.000000 0.000000 -0.000000 -0.000000 -0.000000 0.000000 0.000000 0.000000 -0.000000 -0.000000 -0.000000 0.000000 0.000000 0.000000 -0.000000 -0.000000 -0.000000 0.000000 0.000000 0.000000 -0.000000 -0.000000 -0.000000 0.000000 0.000000 0.000000 -0.000000 -0.000000 -0.000000 0.000000 0.000000 0.000000 -0.000000 -0.000000 -0.000000 0.000000 0.000000 0.000000 -0.000000 -0.000000 -0.000000 0.000000 0.000000 0.000000 -0.000000 -0.000000 -0.000000 0.000000 0.000000 0.000000 -0.000000 -0.000000 -0.000000 0.000000 0.000000 0.000000 -0.000000 -0.000000 -0.000000 0.000000 0.000000 0.000000 -0.000000 -0.000000 -0.000000 0.000000 0.000000 0.000000 -0.000000 -0.000000 -0.000000 0.000000 0.000000 0.000000 -0.000000 -0.000000 -0.000000 0.000000 0.000000 0.000000 -0.000000 -0.000000 -0.000000 0.000000 0.000000 0.000000 -0.000000 -0.000000 -0.000000 0.000000 0.000000 0.000000 -0.000000 -0.000000 -0.000000 0.000000 0.000000 0.000000 -0.000000 -0.000000 -0.000000 0.000000 0.000000 0.000000 -0.000000 -0.000000 -0.000000 0.000000 0.000000 0.000000 -0.000000 -0.000000 -0.000000 0.000000 0.000000 0.000000 -0.000000 -0.000000 -0.000000 0.000000 0.000000 0.000000 -0.000000 -0.000000 -0.000000 0.000000 0.000000 0.000000 -0.000000 -0.000000 -0.000000 0.000000 0.000000 0.000000 -0.000000 -0.000000 -0.000000 0.000000 0.000000 0.000000 -0.000000 -0.000000 -0.000000 0.000000 0.000000 0.000000 -0.000000 -0.000000 -0.000000 0.000000 0.000000 0.000000 -0.000000 -0.000000 -0.000000 0.000000 0.000000 0.000000 -0.000000 -0.000000 -0.000000 0.000000 0.000000 0.000000 -0.000000 -0.000000 -0.000000 0.000000 0.000000 0.000000 -0.000000 -0.000000 -0.000000 0.000000 0.000000 0.000000 -0.000000 -0.000000 -0.000000 0.000000 0.000000 0.000000 -0.000000 -0.000000 -0.000000 0.000000 0.000000 0.000000 -0.000000 -0.000000 -0.000000 0.000000 0.000000 0.000000 -0.000000 -0.000000 -0.000000 0.000000 0.000000 0.000000 -0.000000 -0.000000 -0.000000 0.000000 0.000000 0.000000 -0.000000 -0.000000 -0.000000 0.000000 0.000000 0.000000 -0.000000 -0.000000 -0.000000 0.000000 0.000000 0.000000 -0.000000 -0.000000 -0.000000 0.000000 0.000000 0.000000 -0.000000 -0.000000 -0.000000 0.000000 0.000000 0.000000 -0.000000 -0.000000 -0.000000 0.000000 0.000000 0.000000 -0.000000 -0.000000 -0.000000 0.000000 0.000000 0.000000 -0.000000 -0.000000 -0.000000 0.000000 0.000000 0.000000 -0.000000 -0.000000 -0.000000 0.000000 0.000000 0.000000 -0.000000 -0.000000 -0.000000 0.000000 0.000000 0.000000 -0.000000 -0.000000 -0.000000 0.000000 0.000000 0.000000 -0.000000 -0.000000 -0.000000 0.000000 0.000000 0.000000 -0.000000 -0.000000 -0.000000 0.000000 0.000000 0.000000 -0.000000 -0.000000 -0.000000 0.000000 0.000000 0.000000 -0.000000 -0.000000 -0.000000 0.000000 0.000000 0.000000 -0.000000 -0.000000 -0.000000 0.000000 0.000000 0.000000 -0.000000 -0.000000 -0.000000 0.000000 0.000000 0.000000 -0.000000 -0.000000 -0.000000 0.000000 0.000000 0.000000 -0.000000 -0.000000 -0.000000 0.000000 0.000000 0.000000 -0.000000 -0.000000 -0.000000 0.000000 0.000000 0.000000 -0.000000 -0.000000 -0.000000 0.000000 0.000000 0.000000 -0.000000 -0.000000 -0.000000 0.000000 0.000000 0.000000 -0.000000 -0.000000 -0.000000 0.000000 0.000000 0.000000 -0.000000 -0.000000 -0.000000 0.000000 0.000000 0.000000 -0.000000 -0.000000 -0.000000 0.000000 0.000000 0.000000 -0.000000 -0.000000 -0.000000 0.000000 0.000000 0.000000 -0.000000 -0.000000 -0.000000 0.000000 0.000000 0.000000 -0.000000 -0.000000 -0.000000 0.000000 0.000000 0.000000 -0.000000 -0.000000 -0.000000 0.000000 0.000000 0.000000 -0.000000 -0.000000 -0.000000 0.000000 0.000000 0.000000 -0.000000 -0.000000 -0.000000 0.000000 0.000000 0.000000 -0.000000 -0.000000 -0.000000 0.000000 0.000000 0.000000 -0.000000 -0.000000 -0.000000 0.000000 0.000000 0.000000 -0.000000 -0.000000 -0.000000 0.000000 0.000000 0.000000 -0.000000 -0.000000 -0.000000 0.000000 0.000000 0.000000 -0.000000 -0.000000 -0.000000 0.000000 0.000000 0.000000 -0.000000 -0.000000 -0.000000 0.000000 0.000000 0.000000 -0.000000 -0.000000 -0.000000 0.000000 0.000000 0.000000 -0.000000 -0.000000 -0.000000 0.000000 0.000000 0.000000 -0.000000 -0.000000 -0.000000 0.000000 0.000000 0.000000 -0.000000 -0.000000 -0.000000 0.000000 0.000000 0.000000 -0.000000 -0.000000 -0.000000 0.000000 0.000000 0.000000 -0.000000 -0.000000 -0.000000 0.000000 0.000000 0.000000 -0.000000 -0.000000 -0.000000 0.000000 0.000000 0.000000 -0.000000 -0.000000 -0.000000 0.000000 0.000000 0.000000 -0.000000 -0.000000 -0.000000 0.000000 0.000000 0.000000 -0.000000 -0.000000 -0.000000 0.000000 0.000000 0.000000 -0.000000 -0.000000 -0.000000 0.000000 0.000000 0.000000 -0.000000 -0.000000 -0.000000 0.000000 0.000000 0.000000 -0.000000 -0.000000 -0.000000 0.000000 0.000000 0.000000 -0.000000 -0.000000 -0.000000 0.000000 0.000000 0.000000 -0.000000 -0.000000 -0.000000 0.000000 0.000000 0.000000 -0.000000 -0.000000 -0.000000 0.000000 0.000000 0.000000 -0.000000 -0.000000 -0.000000 0.000000 0.000000 0.000000 -0.000000 -0.000000 -0.000000 0.000000 0.000000 0.000000 -0.000000 -0.000000 -0.000000 -0.000000 -0.000000 -0.000000 -0.000000 -0.000000 -0.000000 -0.000000 -0.000000 -0.000000 -0.000000 -0.000000 -0.000000 -0.000000 -0.000000 -0.000000 -0.000000 -0.000000 -0.000000 -0.000000 -0.000000 -0.000000 -0.000000 -0.000000 -0.000000 -0.000000 -0.000000 -0.000000 0.000000 -0.000000 -0.000000 -0.000000 -0.000000 -0.000000 0.000000 -0.000000 -0.000000 -0.000000 -0.000000 -0.000000 0.000000 -0.000000 -0.000000 -0.000000 -0.000000 -0.000000 0.000000 -0.000000 -0.000000 -0.000000 -0.000000 -0.000000 0.000000 -0.000000 -0.000000 -0.000000 -0.000000 -0.000000 0.000000 -0.000000 -0.000000 -0.000000 -0.000000 -0.000000 0.000000 -0.000000 -0.000000 -0.000000 -0.000000 -0.000000 0.000000 -0.000000 -0.000000 -0.000000 -0.000000 -0.000000 0.000000 -0.000000 -0.000000 -0.000000 -0.000000 -0.000000 0.000000 -0.000000 -0.000000 -0.000000 -0.000000 -0.000000 0.000000 -0.000000 -0.000000 -0.000000 -0.000000 -0.000000 0.000000 -0.000000 -0.000000 -0.000000 -0.000000 -0.000000 0.000000 -0.000000 -0.000000 -0.000000 -0.000000 -0.000000 0.000000 -0.000000 -0.000000 -0.000000 -0.000000 -0.000000 0.000000 -0.000000 -0.000000 -0.000000 -0.000000 -0.000000 0.000000 -0.000000 -0.000000 -0.000000 -0.000000 -0.000000 0.000000 -0.000000 -0.000000 -0.000000 -0.000000 -0.000000 0.000000 -0.000000 -0.000000 -0.000000 -0.000000 -0.000000 0.000000 -0.000000 -0.000000 -0.000000 -0.000000 -0.000000 0.000000 -0.000000 -0.000000 -0.000000 -0.000000 -0.000000 0.000000 -0.000000 -0.000000 -0.000000 -0.000000 -0.000000 0.000000 -0.000000 -0.000000 -0.000000 -0.000000 -0.000000 0.000000 -0.000000 -0.000000 -0.000000 -0.000000 -0.000000 0.000000 -0.000000 -0.000000 -0.000000 -0.000000 -0.000000 0.000000 -0.000000 -0.000000 -0.000000 -0.000000 -0.000000 0.000000 -0.000000 -0.000000 -0.000000 -0.000000 -0.000000 0.000000 -0.000000 -0.000000 -0.000000 -0.000000 -0.000000 0.000000 -0.000000 -0.000000 -0.000000 -0.000000 -0.000000 0.000000 -0.000000 -0.000000 -0.000000 -0.000000 -0.000000 0.000000 -0.000000 -0.000000 -0.000000 -0.000000 -0.000000 0.000000 -0.000000 -0.000000 -0.000000 -0.000000 -0.000000 0.000000 -0.000000 -0.000000 -0.000000 -0.000000 -0.000000 0.000000 -0.000000 -0.000000 -0.000000 -0.000000 -0.000000 0.000000 -0.000000 -0.000000 -0.000000 -0.000000 -0.000000 -0.000000 -0.000000 0.000000 0.000000 0.000000 0.000000 6668.963832 6668.963832 6668.963832 6774.426628 8131.067356 12489.318122 15010.809189 15670.108135 14691.850577 11558.698284 13474.713413 12623.727046 11589.828458 10508.172964 9596.228021 8227.957179 7151.361474 5964.945917 4887.031719 4030.097559 2878.405114 2171.598036 1333.442453 1899.703622 -1258.879613 -3383.568825 -1389.471713 -555.317476 -214.759805 -75.737886 -24.820829 -11.234690 -11.383541 -14.539401 -16.484937 -16.268447 -14.356561 -11.595242 -8.712068 -6.158637 -4.128827 -2.640186 -1.617104 -0.951733 -0.539545 -0.295196 -0.156112 -0.079902 -0.039621 -0.019051 -0.008889 -0.004027 -0.001773 -0.000758 -0.000315 -0.000128 -0.000050 -0.000019 -0.000007 -0.000003 -0.000001 -0.000000 -0.000000 -0.000000 -0.000000 -0.000000 -0.000000 -0.000000 -0.000000 -0.000000 -0.000000 -0.000000 -0.000000 -0.000000 -0.000000 -0.000000 -0.000000 -0.000000 -0.000000 -0.000000 -0.000000 -0.000000 -0.000000 -0.000000 -0.000000 -0.000000 -0.000000 -0.000000 -0.000000 -0.000000 -0.000000 -0.000000 -0.000000 -0.000000 -0.000000 -0.000000 -0.000000 -0.000000 -0.000000 -0.000000 -0.000000 -0.000000 -0.000000 -0.000000 -0.000000 -0.000000 -0.000000 0.000000 -0.000000 -0.000000 -0.000000 5944.463001 5944.463001 5944.463001 6041.304579 7733.740745 11886.200239 12255.801553 10494.317206 9132.071924 7808.803741 8258.260486 8074.887994 7405.148205 7078.237392 6398.175375 5638.898250 4919.935340 4203.649661 3528.008478 2929.597080 2304.308406 1789.284926 1354.035014 1078.908693 209.829967 -517.180924 -447.374372 -210.942295 -76.538572 -19.367808 -1.909100 -1.912618 -7.475997 -12.786856 -15.642522 -15.866319 -14.198307 -11.576555 -8.765508 -6.239502 -4.210334 -2.709182 -1.669494 -0.988459 -0.563686 -0.310218 -0.165017 -0.084953 -0.042372 -0.020493 -0.009618 -0.004383 -0.001941 -0.000835 -0.000350 -0.000142 -0.000056 -0.000022 -0.000008 -0.000003 -0.000001 -0.000000 -0.000000 -0.000000 -0.000000 -0.000000 -0.000000 -0.000000 -0.000000 -0.000000 -0.000000 -0.000000 -0.000000 -0.000000 0.000000 -0.000000 -0.000000 0.000000 -0.000000 -0.000000 -0.000000 -0.000000 -0.000000 -0.000000 -0.000000 -0.000000 -0.000000 0.000000 -0.000000 -0.000000 0.000000 -0.000000 -0.000000 -0.000000 -0.000000 -0.000000 -0.000000 -0.000000 -0.000000 -0.000000 0.000000 -0.000000 -0.000000 0.000000 -0.000000 -0.000000 -0.000000 -0.000000 -0.000000 -0.000000 -0.000000 5532.859262 5532.859262 5532.859262 5558.196812 5884.577632 6765.513537 6830.638142 6581.678593 6417.644636 6271.913546 6201.497104 6066.235835 5809.363246 5470.471101 5051.266592 4573.884546 4077.394388 3582.085050 3100.570295 2637.627935 2192.104301 1772.999201 1384.080170 1008.464157 617.112192 295.787360 130.265998 69.196579 46.356251 32.429835 19.434643 6.886924 -3.696135 -11.020891 -14.750478 -15.419634 -14.012908 -11.547654 -8.820588 -6.328334 -4.301893 -2.787729 -1.729726 -1.031029 -0.591873 -0.327877 -0.175552 -0.090966 -0.045666 -0.022230 -0.010501 -0.004817 -0.002147 -0.000930 -0.000392 -0.000161 -0.000064 -0.000025 -0.000009 -0.000003 -0.000001 -0.000000 -0.000000 -0.000000 -0.000000 -0.000000 -0.000000 -0.000000 -0.000000 -0.000000 -0.000000 -0.000000 -0.000000 -0.000000 -0.000000 -0.000000 -0.000000 -0.000000 -0.000000 -0.000000 -0.000000 -0.000000 -0.000000 -0.000000 -0.000000 -0.000000 -0.000000 -0.000000 -0.000000 -0.000000 -0.000000 -0.000000 -0.000000 -0.000000 -0.000000 -0.000000 -0.000000 -0.000000 -0.000000 -0.000000 -0.000000 -0.000000 -0.000000 -0.000000 -0.000000 -0.000000 -0.000000 0.000000 0.000000 0.000000 0.000000 5475.102883 5475.102883 5475.102883 5489.781119 5650.697236 5995.192546 6172.507005 6200.704844 6158.153033 6096.279534 6030.205493 5898.646920 5664.767932 5341.917650 4943.081103 4492.434877 4019.371726 3544.238627 3078.883814 2628.578245 2195.361893 1783.598912 1394.908682 1023.482492 671.518000 383.701882 201.720732 109.200498 65.009962 40.454779 22.770257 8.274198 -3.089933 -10.729539 -14.598408 -15.341192 -13.979338 -11.541731 -8.829833 -6.343862 -4.318114 -2.801755 -1.740545 -1.038712 -0.596981 -0.331090 -0.177476 -0.092068 -0.046272 -0.022551 -0.010665 -0.004898 -0.002185 -0.000948 -0.000400 -0.000164 -0.000065 -0.000025 -0.000010 -0.000004 -0.000001 -0.000000 -0.000000 -0.000000 -0.000000 -0.000000 -0.000000 -0.000000 -0.000000 -0.000000 -0.000000 -0.000000 -0.000000 -0.000000 -0.000000 -0.000000 -0.000000 -0.000000 -0.000000 -0.000000 -0.000000 -0.000000 -0.000000 -0.000000 -0.000000 -0.000000 -0.000000 -0.000000 -0.000000 -0.000000 -0.000000 -0.000000 -0.000000 -0.000000 -0.000000 -0.000000 -0.000000 -0.000000 -0.000000 -0.000000 -0.000000 -0.000000 -0.000000 -0.000000 -0.000000 0.000000 0.000000 0.000000 0.000000 0.000000 0.000000 5475.102883 5475.102883 5475.102883 5489.781119 5650.697236 5995.192546 6172.507005 6200.704844 6158.153033 6096.279534 6030.205493 5898.646920 5664.767932 5341.917650 4943.081103 4492.434877 4019.371726 3544.238627 3078.883814 2628.578245 2195.361893 1783.598912 1394.908682 1023.482492 671.518000 383.701882 201.720732 109.200498 65.009962 40.454779 22.770257 8.274198 -3.089933 -10.729539 -14.598408 -15.341192 -13.979338 -11.541731 -8.829833 -6.343862 -4.318114 -2.801755 -1.740545 -1.038712 -0.596981 -0.331090 -0.177476 -0.092068 -0.046272 -0.022551 -0.010665 -0.004898 -0.002185 -0.000948 -0.000400 -0.000164 -0.000065 -0.000025 -0.000010 -0.000004 -0.000001 -0.000000 -0.000000 -0.000000 -0.000000 -0.000000 -0.000000 -0.000000 -0.000000 -0.000000 -0.000000 -0.000000 -0.000000 -0.000000 -0.000000 -0.000000 -0.000000 -0.000000 -0.000000 -0.000000 -0.000000 -0.000000 -0.000000 -0.000000 -0.000000 -0.000000 -0.000000 -0.000000 -0.000000 -0.000000 -0.000000 -0.000000 -0.000000 -0.000000 -0.000000 -0.000000 -0.000000 -0.000000 -0.000000 -0.000000 -0.000000 -0.000000 -0.000000 -0.000000 -0.000000 0.000000 0.000000 0.000000 0.000000 0.000000 0.000000 5475.102883 5475.102883 5475.102883 5489.781119 5650.697236 5995.192546 6172.507005 6200.704844 6158.153033 6096.279534 6030.205493 5898.646920 5664.767932 5341.917650 4943.081103 4492.434877 4019.371726 3544.238627 3078.883814 2628.578245 2195.361893 1783.598912 1394.908682 1023.482492 671.518000 383.701882 201.720732 109.200498 65.009962 40.454779 22.770257 8.274198 -3.089933 -10.729539 -14.598408 -15.341192 -13.979338 -11.541731 -8.829833 -6.343862 -4.318114 -2.801755 -1.740545 -1.038712 -0.596981 -0.331090 -0.177476 -0.092068 -0.046272 -0.022551 -0.010665 -0.004898 -0.002185 -0.000948 -0.000400 -0.000164 -0.000065 -0.000025 -0.000010 -0.000004 -0.000001 -0.000000 -0.000000 -0.000000 -0.000000 -0.000000 -0.000000 -0.000000 -0.000000 -0.000000 -0.000000 -0.000000 -0.000000 -0.000000 -0.000000 -0.000000 -0.000000 -0.000000 -0.000000 -0.000000 -0.000000 -0.000000 -0.000000 -0.000000 -0.000000 -0.000000 -0.000000 -0.000000 -0.000000 -0.000000 -0.000000 -0.000000 -0.000000 -0.000000 -0.000000 -0.000000 -0.000000 -0.000000 -0.000000 -0.000000 -0.000000 -0.000000 -0.000000 -0.000000 -0.000000 0.000000 0.000000 0.000000 0.000000 0.000000 0.000000 10151.492163 10151.492163 10151.492163 10305.492211 11041.915185 11804.775056 13505.166277 12831.672232 11892.958260 11141.868714 11425.314116 10033.760363 11396.307441 11466.474996 10894.315560 10736.731074 10432.983067 10200.443016 9986.917020 9475.515582 8840.340409 8498.646505 8250.790779 8094.716803 7583.235729 6814.710140 6003.422792 5414.815486 5048.694282 4773.364509 4430.577586 3920.008958 3305.992529 2719.671818 2270.684170 1990.249500 1808.438167 1621.279560 1471.013870 988.220321 417.966989 697.812845 -259.628292 -582.066873 -961.391840 263.945838 1395.114516 -1361.568078 -3737.731294 474.330018 -1952.470404 -2813.509113 1230.650454 -1256.729629 -2875.935254 -2106.201523 12025.965931 12025.965931 12025.965931 12228.226754 13333.789202 13138.732719 13138.903074 15866.448330 19112.401023 16088.928011 18519.197314 12272.759513 13519.854499 13657.546652 13551.183803 12881.967483 11821.725870 12318.316456 12872.267068 12817.407087 12804.481970 12002.085731 11634.073916 11413.945224 10765.529009 10280.252892 9698.327464 8949.499523 8419.217007 7889.816550 7485.073463 7257.324233 7046.055579 6778.940259 6340.015437 5764.579525 5153.565372 4580.820412 4144.062049 3863.245882 3653.740893 3432.467180 3182.035572 2904.267757 2599.105396 2204.893979 1888.246856 1361.633536 471.812948 -25.318750 -196.882141 -404.303266 -1276.438632 -1543.106436 1319.200738 1102.999661 14734.094380 14734.094380 14734.094380 15069.116761 17634.262532 16912.482417 20631.948685 14817.682053 18631.270661 19289.071947 16454.803497 16898.886122 18176.441506 17603.900865 16899.928974 15835.181549 13967.359531 15157.826349 15784.161650 16032.563716 16207.301229 14847.824637 14242.172190 14037.222435 13529.651708 13392.963465 12889.632831 11923.831182 11151.408021 10363.880712 9922.161587 9740.588351 9452.826080 8999.869710 8277.666263 7416.925149 6619.070529 5994.235387 5556.646994 5209.854389 4823.330960 4335.949824 3781.166674 3254.303384 2851.593639 2438.534361 2137.027493 1691.771992 1366.602928 486.996649 323.831868 -203.889324 509.807156 -515.713070 2577.911444 1305.929670 16936.944733 16936.944733 16936.944733 17173.515599 19887.336778 19295.659689 17692.408976 20448.560701 15433.033078 18906.870995 20744.105721 22486.472608 22314.020060 20947.725563 20911.546935 18509.674557 17257.683851 17657.216271 18154.664969 17949.660933 18367.057164 17458.929401 16723.324278 16609.024725 15841.213984 15520.865646 14807.903299 13631.362151 12633.077469 11549.032212 10920.004048 10578.961947 10242.129840 9800.395082 9062.094130 8150.126924 7253.620319 6508.671258 5951.789817 5502.370875 5032.328553 4491.300319 3905.138797 3334.815903 2888.697597 2453.835858 2117.898962 1541.931419 1226.202260 514.048246 255.037444 -33.550382 -698.618657 335.206885 67.417204 -126.899262 18762.422174 18762.422174 18762.422174 19058.303717 22728.929728 22231.308625 20298.038077 15095.412259 19556.624788 22586.193021 27045.486524 26289.430951 22391.262045 21010.276490 20105.291949 19435.099377 18189.723983 18706.368075 19129.065074 18552.960811 18160.458649 17615.976063 16779.596368 16844.321203 16107.976717 15734.729334 14716.709579 13261.698177 12104.412295 11092.909450 10688.978339 10562.260701 10355.882828 9880.118746 8990.839756 7910.499108 6905.384607 6139.623777 5630.371225 5257.831500 4877.464253 4394.515122 3862.429068 3307.271059 2884.136476 2461.712474 2157.595974 1733.056997 1279.489579 940.423550 290.035728 166.953699 239.366179 -310.845600 126.301324 135.949646 20236.269144 20236.269144 20236.269144 20320.913760 21508.407030 22082.871072 23075.029070 21238.507389 22299.592330 23221.274707 28964.890790 28062.306908 22843.725191 2