<VTKFile type="PolyData">
<PolyData>
<Piece NumberOfPoints="8632" NumberOfVerts="8632" NumberOfLines="0" NumberOfStrips="0" NumberOfPolys="0">
<PointData>
<DataArray type="Float64" Name="Pressure" format="ascii">
 11270.987858 11270.987858 11270.987858 11255.149643 11076.383147 10613.619513 10110.935048 9583.477506 9025.833440 8407.383603 7730.309983 7028.905876 6326.142634 5627.850281 4946.639735 4300.384008 3713.728805 3200.606017 2736.039144 2276.029016 1796.412649 1329.265370 963.556973 750.601891 661.584631 635.505793 611.523195 537.052037 406.284086 292.876004 244.226251 200.249090 104.885036 13.791624 -6.190994 2.305058 -38.823257 -111.814554 -132.315700 -100.449687 -91.979764 -152.753881 -223.668016 -238.003833 -219.633424 -240.129512 -350.636178 -508.101794 -636.905425 -757.740199 -923.965306 -1102.758601 -1209.716961 -1236.020918 -1213.916584 -1164.876604 -1100.379647 -1028.211782 -953.847350 -880.352271 -809.197172 -741.091242 -676.390031 -615.276652 -557.838363 -504.100063 -454.040570 -407.602093 -364.697010 -325.213456 -289.020247 -255.971276 -225.909395 -198.669809 -174.082999 -151.977211 -132.180583 -114.522939 -98.837306 -84.961192 -72.737653 -62.016171 -52.653359 -44.513518 -37.469043 -31.400702 -26.197787 -21.758149 -17.988140 -14.802445 -12.123838 -9.882869 -8.017480 -6.472577 -5.199567 -4.155861 -3.304370 -2.612994 -2.054110 -1.604090 -1.242828 -0.953330 -0.721380 -0.535369 -0.386354 -0.267741 -0.172338 -0.113521 -0.102622 -0.102622 -0.102622 11270.987858 11270.987858 11270.987858 11255.149643 11076.383147 10613.619513 10110.935048 9583.477506 9025.833440 8407.383603 7730.309983 7028.905876 6326.142634 5627.850281 4946.639735 4300.384008 3713.728805 3200.606017 2736.039144 2276.029016 1796.412649 1329.265370 963.556973 750.601891 661.584631 635.505793 611.523195 537.052037 406.284086 292.876004 244.226251 200.249090 104.885036 13.791624 -6.190994 2.305058 -38.823257 -111.814554 -132.315700 -100.449687 -91.979764 -152.753881 -223.668016 -238.003833 -219.633424 -240.129512 -350.636178 -508.101794 -636.905425 -757.740199 -923.965306 -1102.758601 -1209.716961 -1236.020918 -1213.916584 -1164.876604 -1100.379647 -1028.211782 -953.847350 -880.352271 -809.197172 -741.091242 -676.390031 -615.276652 -557.838363 -504.100063 -454.040570 -407.602093 -364.697010 -325.213456 -289.020247 -255.971276 -225.909395 -198.669809 -174.082999 -151.977211 -132.180583 -114.522939 -98.837306 -84.961192 -72.737653 -62.016171 -52.653359 -44.513518 -37.469043 -31.400702 -26.197787 -21.758149 -17.988140 -14.802445 -12.123838 -9.882869 -8.017480 -6.472577 -5.199567 -4.155861 -3.304370 -2.612994 -2.054110 -1.604090 -1.242828 -0.953330 -0.721380 -0.535369 -0.386354 -0.267741 -0.172338 -0.113521 -0.102622 -0.102622 -0.102622 11270.987858 11270.987858 11270.987858 11255.149643 11076.383147 10613.619513 10110.935048 9583.477506 9025.833440 8407.383603 7730.309983 7028.905876 6326.142634 5627.850281 4946.639735 4300.384008 3713.728805 3200.606017 2736.039144 2276.029016 1796.412649 1329.265370 963.556973 750.601891 661.584631 635.505793 611.523195 537.052037 406.284086 292.876004 244.226251 200.249090 104.885036 13.791624 -6.190994 2.305058 -38.823257 -111.814554 -132.315700 -100.449687 -91.979764 -152.753881 -223.668016 -238.003833 -219.633424 -240.129512 -350.636178 -508.101794 -636.905425 -757.740199 -923.965306 -1102.758601 -1209.716961 -1236.020918 -1213.916584 -1164.876604 -1100.379647 -1028.211782 -953.847350 -880.352271 -809.197172 -741.091242 -676.390031 -615.276652 -557.838363 -504.100063 -454.040570 -407.602093 -364.697010 -325.213456 -289.020247 -255.971276 -225.909395 -198.669809 -174.082999 -151.977211 -132.180583 -114.522939 -98.837306 -84.961192 -72.737653 -62.016171 -52.653359 -44.513518 -37.469043 -31.400702 -26.197787 -21.758149 -17.988140 -14.802445 -12.123838 -9.882869 -8.017480 -6.472577 -5.199567 -4.155861 -3.304370 -2.612994 -2.054110 -1.604090 -1.242828 -0.953330 -0.721380 -0.535369 -0.386354 -0.267741 -0.172338 -0.113521 -0.102622 -0.102622 -0.102622 11263.550620 11263.550620 11263.550620 11248.395409 11072.828548 10612.561172 10107.642156 9588.687495 9044.484976 8419.411646 7725.380185 7018.089153 6320.110216 5618.467637 4931.439780 4277.611205 3689.786855 3191.708637 2744.814586 2291.108573 1797.205754 1293.266076 908.257045 708.525255 642.234225 637.467791 631.504146 559.030521 399.618392 267.742372 242.280807 219.289066 100.742280 -15.871294 -17.610928 20.321968 -27.909017 -132.913441 -151.764323 -91.868912 -66.685246 -149.783528 -245.122961 -249.651864 -205.387331 -205.900019 -335.272893 -524.659788 -636.300998 -734.160052 -931.134793 -1129.482427 -1234.406081 -1253.005853 -1223.855604 -1170.843767 -1103.710421 -1029.791942 -954.491171 -880.586448 -809.260827 -741.085092 -676.355384 -615.230487 -557.787814 -504.048279 -453.989062 -407.551672 -364.648168 -325.166519 -288.975440 -255.928754 -225.869261 -198.632123 -174.047783 -151.944461 -132.150269 -114.495010 -98.811695 -84.937816 -72.716418 -61.996973 -52.636088 -44.498056 -37.455271 -31.388498 -26.187028 -21.748715 -17.979912 -14.795308 -12.117682 -9.877589 -8.012977 -6.468759 -5.196348 -4.153164 -3.302125 -2.611135 -2.052579 -1.602829 -1.241774 -0.952395 -0.720406 -0.534066 -0.384462 -0.265550 -0.170785 -0.112491 -0.101731 -0.101731 -0.101731 11176.806420 11176.806420 11176.806420 11167.100952 11038.696910 10621.748740 10061.298862 9679.970083 9350.184397 8601.862445 7635.864443 6880.075876 6295.260922 5530.620585 4737.455460 3962.142244 3345.308572 3072.839962 2880.786414 2526.647707 1888.693180 787.089005 157.921230 196.487868 424.525261 669.978010 901.431525 953.491345 269.609092 -199.344838 232.638123 621.257078 45.555048 -536.525648 -182.424945 384.408921 225.931315 -564.651580 -447.168346 32.347458 429.745396 -122.216203 -662.254743 -408.094584 -37.395672 325.149615 -140.376487 -871.984793 -682.273408 -440.032410 -1053.680022 -1671.859799 -1568.340985 -1443.000974 -1332.884415 -1238.870560 -1141.797720 -1045.797258 -960.852393 -882.859666 -809.865370 -741.010162 -676.003450 -614.766621 -557.281442 -503.530108 -453.473878 -407.047469 -364.159810 -324.697239 -288.527479 -255.503661 -225.468053 -198.255390 -173.695765 -151.617102 -131.847269 -114.215861 -98.555716 -84.704184 -72.504192 -61.805114 -52.463485 -44.343546 -37.317653 -31.266552 -26.079533 -21.654460 -17.897711 -14.724011 -12.056186 -9.824844 -7.967997 -6.430623 -5.164206 -4.126236 -3.279702 -2.592575 -2.037292 -1.590246 -1.231271 -0.943092 -0.710685 -0.520581 -0.361007 -0.236567 -0.151605 -0.100975 -0.092099 -0.092099 -0.092099 11031.055301 11031.055301 11031.055301 11027.891349 11011.777363 10782.080335 9696.004396 9784.885787 10435.079184 9016.069070 7213.467417 6573.100112 6789.825419 5329.059396 4428.693523 3270.277475 2456.370895 2903.552743 3226.765039 3027.382890 2509.568433 -226.853498 -1412.383614 -499.140816 159.254268 722.946765 1390.808388 2005.719057 36.989327 -1398.798665 262.387946 1942.267647 -57.829338 -1942.492305 -513.453039 1259.992302 777.546039 -1546.401280 -1061.015284 295.446626 1330.590375 -169.229296 -1480.018485 -692.661539 211.636452 1158.404410 195.418475 -1386.947502 -771.660713 201.349806 -798.059458 -2269.884725 -2036.228487 -1672.796522 -1463.821398 -1332.430464 -1208.206413 -1072.564704 -970.771017 -886.462311 -810.950867 -741.082673 -675.665719 -614.263686 -556.715088 -502.944378 -452.889233 -406.474451 -363.604525 -324.163585 -288.018087 -255.020314 -225.011912 -197.827123 -173.295635 -151.245042 -131.502930 -113.898662 -98.264879 -84.438768 -72.263122 -61.587208 -52.267478 -44.168110 -37.161420 -31.128136 -25.957540 -21.547514 -17.804461 -14.643148 -11.986454 -9.765051 -7.917018 -6.387412 -5.127796 -4.095741 -3.254314 -2.571560 -2.019969 -1.575944 -1.219208 -0.932068 -0.698221 -0.500224 -0.311507 -0.183691 -0.121793 -0.085840 -0.079336 -0.079336 -0.079336 -0.160981 -0.108312 -0.081266 -0.077654 -0.077654 -0.077654 -0.115812 -0.087053 -0.069267 -0.066859 -0.066859 -0.066859 -0.069796 -0.060370 -0.052644 -0.051549 -0.051549 -0.051549 -0.045658 -0.042234 -0.039269 -0.038830 -0.038830 -0.038830 -0.031153 -0.029966 -0.028952 -0.028805 -0.028805 -0.028805 -0.021777 -0.021431 -0.021173 -0.021140 -0.021140 -0.021140 -0.015410 -0.015370 -0.015381 -0.015388 -0.015388 -0.015388 -0.010959 -0.011017 -0.011108 -0.011126 -0.011126 -0.011126 -0.007800 -0.007878 -0.007978 -0.007997 -0.007997 -0.007997 -0.005541 -0.005613 -0.005700 -0.005716 -0.005716 -0.005716 -0.003924 -0.003983 -0.004052 -0.004064 -0.004064 -0.004064 -0.002768 -0.002813 -0.002865 -0.002875 -0.002875 -0.002875 -0.001944 -0.001978 -0.002016 -0.002023 -0.002023 -0.002023 -0.001359 -0.001384 -0.001412 -0.001417 -0.001417 -0.001417 -0.000946 -0.000963 -0.000984 -0.000987 -0.000987 -0.000987 -0.000655 -0.000667 -0.000682 -0.000685 -0.000685 -0.000685 -0.000451 -0.000460 -0.000470 -0.000472 -0.000472 -0.000472 -0.000309 -0.000316 -0.000323 -0.000324 -0.000324 -0.000324 -0.000211 -0.000215 -0.000221 -0.000221 -0.000221 -0.000221 -0.000143 -0.000146 -0.000150 -0.000151 -0.000151 -0.000151 -0.000097 -0.000099 -0.000101 -0.000102 -0.000102 -0.000102 -0.000065 -0.000067 -0.000068 -0.000069 -0.000069 -0.000069 -0.000044 -0.000045 -0.000046 -0.000046 -0.000046 -0.000046 -0.000029 -0.000030 -0.000030 -0.000031 -0.000031 -0.000031 -0.000019 -0.000020 -0.000020 -0.000020 -0.000020 -0.000020 -0.000013 -0.000013 -0.000013 -0.000013 -0.000013 -0.000013 -0.000008 -0.000009 -0.000009 -0.000009 -0.000009 -0.000009 -0.000005 -0.000006 -0.000006 -0.000006 -0.000006 -0.000006 -0.000004 -0.000004 -0.000004 -0.000004 -0.000004 -0.000004 -0.000002 -0.000002 -0.000002 -0.000002 -0.000002 -0.000002 -0.000001 -0.000002 -0.000002 -0.000002 -0.000002 -0.000002 -0.000001 -0.000001 -0.000001 -0.000001 -0.000001 -0.000001 -0.000001 -0.000001 -0.000001 -0.000001 -0.000001 -0.000001 -0.000000 -0.000000 -0.000000 -0.000000 -0.000000 -0.000000 -0.000000 -0.000000 -0.000000 -0.000000 -0.000000 -0.000000 -0.000000 -0.000000 -0.000000 -0.000000 -0.000000 -0.000000 -0.000000 -0.000000 -0.000000 -0.000000 -0.000000 -0.000000 -0.000000 -0.000000 -0.000000 -0.000000 -0.000000 -0.000000 -0.000000 -0.000000 -0.000000 -0.000000 -0.000000 -0.000000 -0.000000 -0.000000 -0.000000 -0.000000 -0.000000 -0.000000 -0.000000 -0.000000 -0.000000 -0.000000 -0.000000 -0.000000 -0.000000 -0.000000 -0.000000 -0.000000 -0.000000 -0.000000 -0.000000 -0.000000 -0.000000 -0.000000 -0.000000 -0.000000 -0.000000 -0.000000 -0.000000 -0.000000 -0.000000 -0.000000 -0.000000 -0.000000 -0.000000 -0.000000 -0.000000 -0.000000 -0.000000 -0.000000 -0.000000 -0.000000 -0.000000 -0.000000 -0.000000 -0.000000 -0.000000 -0.000000 -0.000000 -0.000000 -0.000000 -0.000000 -0.000000 -0.000000 -0.000000 -0.000000 -0.000000 -0.000000 -0.000000 -0.000000 -0.000000 -0.000000 -0.000000 -0.000000 -0.000000 -0.000000 -0.000000 -0.000000 -0.000000 -0.000000 -0.000000 -0.000000 -0.000000 -0.000000 -0.000000 -0.000000 -0.000000 -0.000000 -0.000000 -0.000000 -0.000000 -0.000000 -0.000000 0.000000 0.000000 0.000000 -0.000000 -0.000000 -0.000000 0.000000 0.000000 0.000000 -0.000000 -0.000000 -0.000000 0.000000 0.000000 0.000000 -0.000000 -0.000000 -0.000000 0.000000 0.000000 0.000000 -0.000000 -0.000000 -0.000000 0.000000 0.000000 0.000000 -0.000000 -0.000000 -0.000000 0.000000 0.000000 0.000000 -0.000000 -0.000000 -0.000000 0.000000 0.000000 0.000000 -0.000000 -0.000000 -0.000000 0.000000 0.000000 0.000000 -0.000000 -0.000000 -0.000000 0.000000 0.000000 0.000000 -0.000000 -0.000000 -0.000000 0.000000 0.000000 0.000000 -0.000000 -0.000000 -0.000000 0.000000 0.000000 0.000000 -0.000000 -0.000000 -0.000000 0.000000 0.000000 0.000000 -0.000000 -0.000000 -0.000000 0.000000 0.000000 0.000000 -0.000000 -0.000000 -0.000000 0.000000 0.000000 0.000000 -0.000000 -0.000000 -0.000000 0.000000 0.000000 0.000000 -0.000000 -0.000000 -0.000000 0.000000 0.000000 0.000000 -0.000000 -0.000000 -0.000000 0.000000 0.000000 0.000000 -0.000000 -0.000000 -0.000000 0.000000 0.000000 0.000000 -0.000000 -0.000000 -0.000000 0.000000 0.000000 0.000000 -0.000000 -0.000000 -0.000000 0.000000 0.000000 0.000000 -0.000000 -0.000000 -0.000000 0.000000 0.000000 0.000000 -0.000000 -0.000000 -0.000000 0.000000 0.000000 0.000000 -0.000000 -0.000000 -0.000000 0.000000 0.000000 0.000000 -0.000000 -0.000000 -0.000000 0.000000 0.000000 0.000000 -0.000000 -0.000000 -0.000000 0.000000 0.000000 0.000000 -0.000000 -0.000000 -0.000000 0.000000 0.000000 0.000000 -0.000000 -0.000000 -0.000000 0.000000 0.000000 0.000000 -0.000000 -0.000000 -0.000000 0.000000 0.000000 0.000000 -0.000000 -0.000000 -0.000000 0.000000 0.000000 0.000000 -0.000000 -0.000000 -0.000000 0.000000 0.000000 0.000000 -0.000000 -0.000000 -0.000000 0.000000 0.000000 0.000000 -0.000000 -0.000000 -0.000000 0.000000 0.000000 0.000000 -0.000000 -0.000000 -0.000000 0.000000 0.000000 0.000000 -0.000000 -0.000000 -0.000000 0.000000 0.000000 0.000000 -0.000000 -0.000000 -0.000000 0.000000 0.000000 0.000000 -0.000000 -0.000000 -0.000000 0.000000 0.000000 0.000000 -0.000000 -0.000000 -0.000000 0.000000 0.000000 0.000000 -0.000000 -0.000000 -0.000000 0.000000 0.000000 0.000000 -0.000000 -0.000000 -0.000000 0.000000 0.000000 0.000000 -0.000000 -0.000000 -0.000000 0.000000 0.000000 0.000000 -0.000000 -0.000000 -0.000000 0.000000 0.000000 0.000000 -0.000000 -0.000000 -0.000000 0.000000 0.000000 0.000000 -0.000000 -0.000000 -0.000000 0.000000 0.000000 0.000000 -0.000000 -0.000000 -0.000000 0.000000 0.000000 0.000000 -0.000000 -0.000000 -0.000000 0.000000 0.000000 0.000000 -0.000000 -0.000000 -0.000000 0.000000 0.000000 0.000000 -0.000000 -0.000000 -0.000000 0.000000 0.000000 0.000000 -0.000000 -0.000000 -0.000000 0.000000 0.000000 0.000000 -0.000000 -0.000000 -0.000000 0.000000 0.000000 0.000000 -0.000000 -0.000000 -0.000000 0.000000 0.000000 0.000000 -0.000000 -0.000000 -0.000000 0.000000 0.000000 0.000000 -0.000000 -0.000000 -0.000000 0.000000 0.000000 0.000000 -0.000000 -0.000000 -0.000000 0.000000 0.000000 0.000000 -0.000000 -0.000000 -0.000000 0.000000 0.000000 0.000000 -0.000000 -0.000000 -0.000000 0.000000 0.000000 0.000000 -0.000000 -0.000000 -0.000000 0.000000 0.000000 0.000000 -0.000000 -0.000000 -0.000000 0.000000 0.000000 0.000000 -0.000000 -0.000000 -0.000000 0.000000 0.000000 0.000000 -0.000000 -0.000000 -0.000000 0.000000 0.000000 0.000000 -0.000000 -0.000000 -0.000000 0.000000 0.000000 0.000000 -0.000000 -0.000000 -0.000000 0.000000 0.000000 0.000000 -0.000000 -0.000000 -0.000000 0.000000 0.000000 0.000000 -0.000000 -0.000000 -0.000000 0.000000 0.000000 0.000000 -0.000000 -0.000000 -0.000000 0.000000 0.000000 0.000000 -0.000000 -0.000000 -0.000000 0.000000 0.000000 0.000000 -0.000000 -0.000000 -0.000000 0.000000 0.000000 0.000000 -0.000000 -0.000000 -0.000000 0.000000 0.000000 0.000000 -0.000000 -0.000000 -0.000000 0.000000 0.000000 0.000000 -0.000000 -0.000000 -0.000000 0.000000 0.000000 0.000000 -0.000000 -0.000000 -0.000000 0.000000 0.000000 0.000000 -0.000000 -0.000000 -0.000000 0.000000 0.000000 0.000000 -0.000000 -0.000000 -0.000000 0.000000 0.000000 0.000000 -0.000000 -0.000000 -0.000000 0.000000 0.000000 0.000000 -0.000000 -0.000000 -0.000000 0.000000 0.000000 0.000000 -0.000000 -0.000000 -0.000000 0.000000 0.000000 0.000000 -0.000000 -0.000000 -0.000000 0.000000 0.000000 0.000000 -0.000000 -0.000000 -0.000000 0.000000 0.000000 0.000000 -0.000000 -0.000000 -0.000000 0.000000 0.000000 0.000000 -0.000000 -0.000000 -0.000000 0.000000 0.000000 0.000000 -0.000000 -0.000000 -0.000000 0.000000 0.000000 0.000000 -0.000000 -0.000000 -0.000000 0.000000 0.000000 0.000000 -0.000000 -0.000000 -0.000000 0.000000 0.000000 0.000000 -0.000000 -0.000000 -0.000000 0.000000 0.000000 0.000000 -0.000000 -0.000000 -0.000000 0.000000 0.000000 0.000000 -0.000000 -0.000000 -0.000000 0.000000 0.000000 0.000000 -0.000000 -0.000000 -0.000000 0.000000 0.000000 0.000000 -0.000000 -0.000000 -0.000000 0.000000 0.000000 0.000000 -0.000000 -0.000000 -0.000000 0.000000 0.000000 0.000000 -0.000000 -0.000000 -0.000000 0.000000 0.000000 0.000000 -0.000000 -0.000000 -0.000000 0.000000 0.000000 0.000000 -0.000000 -0.000000 -0.000000 0.000000 0.000000 0.000000 -0.000000 -0.000000 -0.000000 0.000000 0.000000 0.000000 -0.000000 -0.000000 -0.000000 0.000000 0.000000 0.000000 -0.000000 -0.000000 -0.000000 0.000000 0.000000 0.000000 -0.000000 -0.000000 -0.000000 0.000000 0.000000 0.000000 -0.000000 -0.000000 -0.000000 0.000000 0.000000 0.000000 -0.000000 -0.000000 -0.000000 0.000000 0.000000 0.000000 -0.000000 -0.000000 -0.000000 0.000000 0.000000 0.000000 -0.000000 -0.000000 -0.000000 0.000000 0.000000 0.000000 -0.000000 -0.000000 -0.000000 0.000000 0.000000 0.000000 -0.000000 -0.000000 -0.000000 0.000000 0.000000 0.000000 -0.000000 -0.000000 -0.000000 0.000000 0.000000 0.000000 -0.000000 -0.000000 -0.000000 0.000000 0.000000 0.000000 -0.000000 -0.000000 -0.000000 0.000000 0.000000 0.000000 -0.000000 -0.000000 -0.000000 0.000000 0.000000 0.000000 -0.000000 -0.000000 -0.000000 0.000000 0.000000 0.000000 -0.000000 -0.000000 -0.000000 0.000000 0.000000 0.000000 -0.000000 -0.000000 -0.000000 0.000000 0.000000 0.000000 -0.000000 -0.000000 -0.000000 -0.000000 -0.000000 -0.000000 -0.000000 -0.000000 -0.000000 -0.000000 -0.000000 -0.000000 -0.000000 -0.000000 -0.000000 -0.000000 -0.000000 -0.000000 -0.000000 -0.000000 -0.000000 -0.000000 -0.000000 -0.000000 -0.000000 -0.000000 -0.000000 -0.000000 -0.000000 -0.000000 0.000000 -0.000000 -0.000000 -0.000000 -0.000000 -0.000000 0.000000 -0.000000 -0.000000 -0.000000 -0.000000 -0.000000 0.000000 -0.000000 -0.000000 -0.000000 -0.000000 -0.000000 0.000000 -0.000000 -0.000000 -0.000000 -0.000000 -0.000000 0.000000 -0.000000 -0.000000 -0.000000 -0.000000 -0.000000 0.000000 -0.000000 -0.000000 -0.000000 -0.000000 -0.000000 0.000000 -0.000000 -0.000000 -0.000000 -0.000000 -0.000000 0.000000 -0.000000 -0.000000 -0.000000 -0.000000 -0.000000 -0.000000 -0.000000 -0.000000 -0.000000 -0.000000 -0.000000 -0.000000 -0.000000 -0.000000 -0.000000 -0.000000 -0.000000 -0.000000 -0.000000 -0.000000 -0.000000 -0.000000 -0.000000 -0.000000 -0.000000 -0.000000 -0.000000 -0.000000 -0.000000 -0.000000 -0.000000 -0.000000 -0.000000 -0.000000 -0.000000 -0.000000 -0.000000 -0.000000 -0.000000 -0.000000 -0.000000 -0.000000 -0.000000 -0.000000 -0.000000 -0.000000 -0.000000 -0.000000 -0.000000 -0.000000 -0.000000 -0.000000 -0.000000 -0.000000 -0.000000 -0.000000 -0.000000 -0.000000 -0.000000 -0.000000 -0.000000 -0.000000 -0.000000 -0.000000 -0.000000 -0.000000 -0.000000 -0.000000 -0.000000 -0.000000 -0.000000 -0.000000 -0.000000 -0.000000 -0.000000 -0.000000 -0.000000 -0.000000 -0.000000 -0.000000 -0.000000 -0.000000 -0.000000 -0.000000 -0.000000 -0.000000 -0.000000 -0.000000 -0.000000 -0.000000 -0.000000 -0.000000 -0.000000 -0.000000 -0.000000 -0.000000 -0.000000 -0.000000 -0.000000 -0.000000 -0.000000 -0.000000 -0.000000 -0.000000 -0.000000 -0.000000 -0.000000 -0.000000 -0.000000 -0.000000 -0.000000 -0.000000 -0.000000 -0.000000 -0.000000 -0.000000 -0.000000 -0.000000 -0.000000 -0.000000 -0.000000 -0.000000 -0.000000 -0.000000 -0.000000 -0.000000 -0.000000 -0.000000 -0.000000 -0.000000 -0.000000 -0.000000 -0.000000 -0.000000 -0.000000 -0.000000 -0.000000 -0.000000 -0.000000 -0.000000 -0.000000 -0.000000 -0.000000 -0.000000 -0.000000 -0.000000 -0.000000 -0.000000 -0.000000 -0.000000 -0.000000 -0.000000 -0.000000 -0.000000 -0.000000 -0.000000 -0.000000 -0.000000 -0.000000 -0.000000 -0.000000 -0.000001 -0.000001 -0.000000 -0.000000 -0.000000 -0.000000 14590.477736 14590.477736 14590.477736 14757.877828 16689.682639 16736.987381 14690.212493 17279.176159 17775.652239 17125.709479 16583.980802 17173.227931 15467.039498 14727.172254 14505.015276 12338.363879 11908.767013 10812.110144 9499.956817 9055.751179 7273.113103 7064.656355 6476.798898 4897.704997 5932.269136 5891.752743 6018.209301 4720.744826 3944.925277 2579.477399 1994.622262 1637.014039 1378.709301 1173.398944 1003.225200 859.394052 736.415143 630.420489 538.587850 458.825042 389.535356 329.443831 277.480989 232.713022 194.303786 161.495721 133.600590 109.994565 90.114782 73.456119 59.567778 48.049653 38.548567 30.754499 24.396864 19.240892 15.084143 11.753172 9.100356 7.000899 5.350031 4.060414 3.059758 2.288660 1.698663 1.250527 0.912712 0.660058 0.472644 0.334821 0.234391 0.161919 0.110171 0.073643 0.048184 0.030693 0.018873 0.011039 0.005970 0.002789 0.000873 -0.000212 -0.000767 -0.000995 -0.001031 -0.000963 -0.000845 -0.000712 -0.000581 -0.000464 -0.000363 -0.000279 -0.000212 -0.000159 -0.000117 -0.000086 -0.000062 -0.000045 -0.000032 -0.000023 -0.000016 -0.000011 -0.000008 -0.000005 -0.000003 -0.000002 -0.000001 -0.000000 -0.000000 -0.000000 -0.000000 14158.884566 14158.884566 14158.884566 14186.760793 14915.802487 14618.019666 12777.099865 14423.000967 15655.987689 15328.734218 14752.993443 14361.965087 13407.579111 12745.149291 11818.160950 10374.299564 9870.477489 8919.259136 7956.084003 7432.141990 6236.309739 5553.899115 5254.752007 4679.903717 4655.962711 4432.988025 4061.380418 3515.142685 2923.295557 2364.088850 1933.268291 1620.992495 1376.043343 1174.714654 1005.568294 861.812418 738.625620 632.371103 540.299587 460.333257 390.870795 330.629267 278.532929 233.644158 195.124816 162.216363 134.230035 110.541600 90.587780 73.862987 59.915915 48.345920 38.799286 30.965455 24.573313 19.387585 15.205343 11.852676 9.181523 7.066675 5.402980 4.102749 3.093375 2.315168 1.719418 1.266659 0.925158 0.669587 0.479883 0.340276 0.238466 0.164938 0.112386 0.075252 0.049342 0.031516 0.019451 0.011439 0.006243 0.002971 0.000993 -0.000136 -0.000721 -0.000968 -0.001016 -0.000956 -0.000843 -0.000713 -0.000583 -0.000466 -0.000365 -0.000282 -0.000214 -0.000160 -0.000119 -0.000087 -0.000063 -0.000046 -0.000033 -0.000023 -0.000016 -0.000011 -0.000008 -0.000005 -0.000003 -0.000002 -0.000001 -0.000001 -0.000000 -0.000000 -0.000000 13923.992929 13923.992929 13923.992929 13920.192925 13905.937786 13820.462775 13594.301031 13590.005777 13484.482069 13106.713217 12643.380165 12139.670250 11550.738621 10921.200583 10223.962408 9490.200791 8789.298547 8080.281458 7378.903639 6715.728022 6068.400756 5497.378452 5008.736466 4575.002336 4197.429188 3817.313529 3411.044780 2990.677467 2583.186449 2208.622394 1883.309222 1607.710808 1374.620624 1176.834331 1008.509039 864.699077 741.213770 634.633679 542.274879 462.068500 392.404611 331.989525 279.739470 234.711987 196.066396 163.042910 134.952095 111.169233 91.130566 74.329975 60.315571 48.686103 39.087234 31.207791 24.776062 19.556189 15.344686 11.967111 9.274899 7.142370 5.463936 4.151505 3.132106 2.345722 1.743349 1.285268 0.939522 0.680590 0.488246 0.346581 0.243180 0.168431 0.114952 0.077118 0.050684 0.032471 0.020122 0.011905 0.006561 0.003184 0.001132 -0.000047 -0.000666 -0.000936 -0.000999 -0.000948 -0.000841 -0.000713 -0.000586 -0.000469 -0.000368 -0.000284 -0.000216 -0.000162 -0.000121 -0.000089 -0.000064 -0.000046 -0.000033 -0.000023 -0.000016 -0.000011 -0.000008 -0.000005 -0.000004 -0.000002 -0.000001 -0.000001 -0.000001 -0.000001 -0.000001 13891.964998 13891.964998 13891.964998 13887.645844 13842.100247 13744.539983 13650.770174 13506.019518 13230.215608 12843.641575 12406.313628 11917.644744 11358.719863 10743.229083 10080.625532 9391.422236 8705.909715 8016.411083 7334.889080 6681.654894 6060.750948 5498.975346 5002.755847 4556.690209 4146.380403 3742.799183 3333.952879 2928.795987 2542.725346 2189.022947 1876.185937 1605.837495 1374.530873 1177.276410 1009.062196 865.228423 741.683556 635.042292 542.630598 462.380464 392.680089 332.233698 279.955992 234.903599 196.235355 163.191237 135.081682 111.281885 91.228000 74.413811 60.387328 48.747189 39.138946 31.251318 24.812484 19.586482 15.369726 11.987679 9.291685 7.155980 5.474898 4.160275 3.139074 2.351220 1.747657 1.288619 0.942109 0.682572 0.489753 0.347717 0.244030 0.169061 0.115415 0.077455 0.050927 0.032644 0.020244 0.011989 0.006618 0.003223 0.001158 -0.000031 -0.000656 -0.000930 -0.000996 -0.000946 -0.000840 -0.000713 -0.000586 -0.000470 -0.000369 -0.000285 -0.000217 -0.000163 -0.000121 -0.000089 -0.000065 -0.000047 -0.000033 -0.000024 -0.000017 -0.000012 -0.000008 -0.000005 -0.000004 -0.000002 -0.000001 -0.000001 -0.000001 -0.000001 -0.000001 13891.964998 13891.964998 13891.964998 13887.645844 13842.100247 13744.539983 13650.770174 13506.019518 13230.215608 12843.641575 12406.313628 11917.644744 11358.719863 10743.229083 10080.625532 9391.422236 8705.909715 8016.411083 7334.889080 6681.654894 6060.750948 5498.975346 5002.755847 4556.690209 4146.380403 3742.799183 3333.952879 2928.795987 2542.725346 2189.022947 1876.185937 1605.837495 1374.530873 1177.276410 1009.062196 865.228423 741.683556 635.042292 542.630598 462.380464 392.680089 332.233698 279.955992 234.903599 196.235355 163.191237 135.081682 111.281885 91.228000 74.413811 60.387328 48.747189 39.138946 31.251318 24.812484 19.586482 15.369726 11.987679 9.291685 7.155980 5.474898 4.160275 3.139074 2.351220 1.747657 1.288619 0.942109 0.682572 0.489753 0.347717 0.244030 0.169061 0.115415 0.077455 0.050927 0.032644 0.020244 0.011989 0.006618 0.003223 0.001158 -0.000031 -0.000656 -0.000930 -0.000996 -0.000946 -0.000840 -0.000713 -0.000586 -0.000470 -0.000369 -0.000285 -0.000217 -0.000163 -0.000121 -0.000089 -0.000065 -0.000047 -0.000033 -0.000024 -0.000017 -0.000012 -0.000008 -0.000005 -0.000004 -0.000002 -0.000001 -0.000001 -0.000001 -0.000001 -0.000001 13891.964998 13891.964998 13891.964998 13887.645844 13842.100247 13744.539983 13650.770174 13506.019518 13230.215608 12843.641575 12406.313628 11917.644744 11358.719863 10743.229083 10080.625532 9391.422236 8705.909715 8016.411083 7334.889080 6681.654894 6060.750948 5498.975346 5002.755847 4556.690209 4146.380403 3742.799183 3333.952879 2928.795987 2542.725346 2189.022947 1876.185937 1605.837495 1374.530873 1177.276410 1009.062196 865.228423 741.683556 635.042292 542.630598 462.380464 392.680089 332.233698 279.955992 234.903599 196.235355 163.191237 135.081682 111.281885 91.228000 74.413811 60.387328 48.747189 39.138946 31.251318 24.812484 19.586482 15.369726 11.987679 9.291685 7.155980 5.474898 4.160275 3.139074 2.351220 1.747657 1.288619 0.942109 0.682572 0.489753 0.347717 0.244030 0.169061 0.115415 0.077455 0.050927 0.032644 0.020244 0.011989 0.006618 0.003223 0.001158 -0.000031 -0.000656 -0.000930 -0.000996 -0.000946 -0.000840 -0.000713 -0.000586 -0.000470 -0.000369 -0.000285 -0.000217 -0.000163 -0.000121 -0.000089 -0.000065 -0.000047 -0.000033 -0.000024 -0.000017 -0.000012 -0.000008 -0.000005 -0.000004 -0.000002 -0.000001 -0.000001 -0.000001 -0.000001 -0.000001 11005.694904 11005.694904 11005.694904 11003.069792 11030.717239 10886.624520 9580.747602 9788.243578 10696.084461 9141.166264 7180.187434 6406.612303 6904.037215 5235.694615 4295.512085 2985.026109 2068.108252 2854.047001 3385.135108 3152.460464 2723.707561 -362.950388 -1709.212630 -582.597844 139.059147 727.640648 1458.598806 2201.048201 23.465475 -1601.288679 281.477280 2236.708508 -71.075844 -2234.072355 -572.830867 1398.092345 854.638218 -1674.654110 -1140.952342 322.459019 1406.740347 -196.353976 -1566.355828 -721.683303 230.405128 1221.975611 250.214628 -1400.099565 -773.713458 290.887533 -653.809739 -2245.026923 -2065.773031 -1689.968160 -1473.545097 -1340.843857 10807.474015 10807.474015 10807.474015 10799.610539 10762.278830 11020.240443 13212.646876 13004.070643 14839.030377 8866.585813 9464.041169 7571.455642 12518.229106 10511.299383 12694.730507 7981.957331 10308.532414 9172.108838 12330.783213 12013.090185 13625.173433 11370.904923 11091.179092 8788.905097 8326.232715 13821.925856 10689.471142 9344.243576 7533.014574 9495.146702 9734.221620 9060.871658 10657.670910 8968.414308 7126.941224 9443.900304 9944.073291 8613.266393 8909.160102 9666.855881 8464.691700 10563.026285 8441.669888 8773.395175 9266.133572 8202.848659 8929.450711 9577.009653 9452.741578 9679.155918 8749.046143 10482.029779 7051.694652 -4.800040 -201.421541 -1611.725655 10535.668360 10535.668360 10535.668360 10473.938171 9501.982074 8676.379135 11566.009715 11420.508512 10532.183104 10033.874422 7670.606469 11559.719492 10490.022330 12181.694071 7043.184218 7058.578471 11453.051742 10143.005836 11904.424155 6699.037504 10816.639803 9411.734389 6129.081874 7521.239297 8616.533882 8440.056586 6822.532914 8218.318635 9221.952834 7816.420252 10032.750907 8278.599323 7244.780791 9806.330596 9043.747125 9331.144055 8814.140494 8834.227790 6781.100635 7872.359063 9055.585642 9590.118470 9603.220503 9143.875585 6661.295241 8924.696099 9603.983868 8033.674701 8966.798709 10117.322775 10510.823717 9293.429586 2329.560879 3217.003813 101.987376 125.207346 10406.453925 10406.453925 10406.453925 10392.357642 9550.323566 9307.054496 13926.445851 14242.440659 10317.279904 9326.508733 10041.908857 9836.090642 7582.153022 5903.135063 10770.880671 8480.402355 6473.039172 7894.927084 8466.436716 8428.192050 6876.366177 6846.559340 9795.012008 7441.943265 8327.867305 10522.732855 7040.057495 8486.768800 6692.998619 7093.857565 5954.313136 8372.233338 6170.756822 7006.012716 6214.139232 6347.676908 6443.480747 11735.011461 8175.536793 8941.259082 8997.447471 8601.021929 8631.247368 9439.981558 8390.742974 9661.983829 9355.720792 8896.254523 9992.619658 11247.974307 4437.596335 8942.657004 280.902113 5481.986522 -389.044259 -783.886519 10372.409262 10372.409262 10372.409262 10299.685618 9378.165977 9514.209985 13516.667587 11548.894919 7149.234569 13753.772621 10268.648167 9281.767044 11260.904407 8721.064429 9520.314071 8759.766799 7071.555808 7262.401516 6897.969025 10982.183480 8298.154108 8407.326169 4874.914018 8777.168872 7363.158364 6860.302701 7031.917204 4866.025735 5084.350128 7341.013934 7477.499831 5933.997372 5837.225416 6227.786181 3981.983780 6519.952690 7037.059120 7343.415242 7665.186095 9054.769878 8788.356268 6747.713240 8176.856175 8457.217715 5966.168587 2809.354207 9853.354610 10411.595178 8823.760700 23