<VTKFile type="PolyData">
<PolyData>
<Piece NumberOfPoints="8632" NumberOfVerts="8632" NumberOfLines="0" NumberOfStrips="0" NumberOfPolys="0">
<PointData>
<DataArray type="Float64" Name="Pressure" format="ascii">
 13071.148542 13071.148542 13071.148542 13066.178644 13005.121927 12819.821066 12550.177300 12202.494493 11821.246938 11424.609884 10999.194095 10535.084949 10012.761890 9397.774296 8692.112387 7939.064436 7176.532861 6417.892120 5657.258746 4883.721577 4100.631564 3331.782433 2616.050461 1999.024533 1508.145881 1143.017267 886.167978 713.898159 600.029917 514.460747 420.604182 285.144808 121.498850 3.987099 -28.010780 -3.299291 26.250088 5.561411 -92.715565 -211.235963 -276.823278 -301.301140 -342.867232 -457.045457 -636.833244 -799.825407 -926.637433 -1074.226988 -1259.391781 -1410.049697 -1480.369743 -1491.113827 -1469.810840 -1431.525826 -1384.153424 -1331.262423 -1274.433668 -1215.113193 -1154.861732 -1094.742025 -1035.337072 -977.000770 -919.984439 -864.487506 -810.674141 -758.678237 -708.605467 -660.535260 -614.523270 -570.604166 -528.794458 -489.095127 -451.493924 -415.967317 -382.482113 -350.996795 -321.462650 -293.824749 -268.022818 -243.992046 -221.663848 -200.966593 -181.826310 -164.167356 -147.913061 -132.986326 -119.310182 -106.808296 -95.405430 -85.027841 -75.603626 -67.063022 -59.338636 -52.365641 -46.081918 -40.428153 -35.347901 -30.787623 -26.696717 -23.027587 -19.735860 -16.781030 -14.128147 -11.751802 -9.643334 -7.811089 -6.233400 -5.220813 -5.029875 -5.029875 -5.029875 13071.148542 13071.148542 13071.148542 13066.178644 13005.121927 12819.821066 12550.177300 12202.494493 11821.246938 11424.609884 10999.194095 10535.084949 10012.761890 9397.774296 8692.112387 7939.064436 7176.532861 6417.892120 5657.258746 4883.721577 4100.631564 3331.782433 2616.050461 1999.024533 1508.145881 1143.017267 886.167978 713.898159 600.029917 514.460747 420.604182 285.144808 121.498850 3.987099 -28.010780 -3.299291 26.250088 5.561411 -92.715565 -211.235963 -276.823278 -301.301140 -342.867232 -457.045457 -636.833244 -799.825407 -926.637433 -1074.226988 -1259.391781 -1410.049697 -1480.369743 -1491.113827 -1469.810840 -1431.525826 -1384.153424 -1331.262423 -1274.433668 -1215.113193 -1154.861732 -1094.742025 -1035.337072 -977.000770 -919.984439 -864.487506 -810.674141 -758.678237 -708.605467 -660.535260 -614.523270 -570.604166 -528.794458 -489.095127 -451.493924 -415.967317 -382.482113 -350.996795 -321.462650 -293.824749 -268.022818 -243.992046 -221.663848 -200.966593 -181.826310 -164.167356 -147.913061 -132.986326 -119.310182 -106.808296 -95.405430 -85.027841 -75.603626 -67.063022 -59.338636 -52.365641 -46.081918 -40.428153 -35.347901 -30.787623 -26.696717 -23.027587 -19.735860 -16.781030 -14.128147 -11.751802 -9.643334 -7.811089 -6.233400 -5.220813 -5.029875 -5.029875 -5.029875 13071.148542 13071.148542 13071.148542 13066.178644 13005.121927 12819.821066 12550.177300 12202.494493 11821.246938 11424.609884 10999.194095 10535.084949 10012.761890 9397.774296 8692.112387 7939.064436 7176.532861 6417.892120 5657.258746 4883.721577 4100.631564 3331.782433 2616.050461 1999.024533 1508.145881 1143.017267 886.167978 713.898159 600.029917 514.460747 420.604182 285.144808 121.498850 3.987099 -28.010780 -3.299291 26.250088 5.561411 -92.715565 -211.235963 -276.823278 -301.301140 -342.867232 -457.045457 -636.833244 -799.825407 -926.637433 -1074.226988 -1259.391781 -1410.049697 -1480.369743 -1491.113827 -1469.810840 -1431.525826 -1384.153424 -1331.262423 -1274.433668 -1215.113193 -1154.861732 -1094.742025 -1035.337072 -977.000770 -919.984439 -864.487506 -810.674141 -758.678237 -708.605467 -660.535260 -614.523270 -570.604166 -528.794458 -489.095127 -451.493924 -415.967317 -382.482113 -350.996795 -321.462650 -293.824749 -268.022818 -243.992046 -221.663848 -200.966593 -181.826310 -164.167356 -147.913061 -132.986326 -119.310182 -106.808296 -95.405430 -85.027841 -75.603626 -67.063022 -59.338636 -52.365641 -46.081918 -40.428153 -35.347901 -30.787623 -26.696717 -23.027587 -19.735860 -16.781030 -14.128147 -11.751802 -9.643334 -7.811089 -6.233400 -5.220813 -5.029875 -5.029875 -5.029875 13085.142441 13085.142441 13085.142441 13080.539961 13023.878444 12845.711183 12565.986706 12195.153980 11803.340527 11409.993494 10987.238252 10535.812963 10036.111252 9423.891175 8704.485048 7942.910037 7178.314865 6421.644103 5664.200519 4891.745441 4105.084928 3331.180907 2606.333088 1984.259590 1493.838589 1132.171531 879.803593 712.651759 605.340698 528.812742 443.561105 300.840111 107.524169 -24.793751 -46.034254 -3.266280 44.860131 35.305472 -84.450871 -234.337060 -291.374557 -295.201607 -316.092744 -427.969119 -650.932848 -811.398828 -918.956961 -1046.378940 -1263.996035 -1437.513158 -1502.527324 -1503.708290 -1476.615308 -1435.325068 -1386.538443 -1333.001925 -1275.592733 -1215.712943 -1155.113812 -1094.835482 -1035.362925 -976.997835 -919.968627 -864.465398 -810.648595 -758.650624 -708.576545 -660.505520 -614.493067 -570.573777 -528.764110 -489.065006 -451.464185 -415.938094 -382.453521 -350.968930 -321.435598 -293.798582 -267.997596 -243.967820 -221.640658 -200.944471 -181.805275 -164.147422 -147.894231 -132.968597 -119.293543 -106.792730 -95.390915 -85.014348 -75.591126 -67.051478 -59.328012 -52.355898 -46.073013 -40.420042 -35.340533 -30.780933 -26.690602 -23.021849 -19.730059 -16.774120 -14.117686 -11.732757 -9.610856 -7.769602 -6.199660 -5.194347 -5.005042 -5.005042 -5.005042 13233.185013 13233.185013 13233.185013 13233.886962 13239.256756 13157.791975 12756.187553 12057.704695 11557.441049 11236.055714 10795.735878 10504.786040 10346.557691 9760.377947 8836.695104 7995.802474 7232.343346 6493.224426 5767.939407 5004.150477 4174.925918 3347.266501 2510.120715 1824.858955 1342.144553 1016.696841 811.999387 700.137217 665.005006 698.644755 757.745740 605.532111 -146.584156 -461.662677 -265.218998 -2.651749 272.164643 517.150445 24.853826 -624.571889 -489.357878 -228.699631 61.988369 -37.525901 -920.129906 -1080.667012 -769.146272 -638.159184 -1396.420469 -1856.693634 -1755.873573 -1641.457766 -1550.388804 -1476.517808 -1412.875950 -1353.971855 -1289.859770 -1221.935886 -1157.630972 -1095.746624 -1035.609522 -976.963383 -919.808403 -864.243439 -810.392759 -758.374323 -708.287254 -660.208091 -614.191040 -570.269922 -528.460672 -488.763845 -451.166864 -415.645939 -382.167668 -350.690359 -321.165151 -293.536981 -267.745452 -243.725636 -221.408838 -200.723319 -181.595005 -163.948155 -147.706008 -132.791380 -119.127225 -106.637140 -95.245826 -84.879489 -75.466181 -66.936103 -59.221832 -52.258517 -45.984015 -40.338981 -35.266904 -30.714092 -26.629542 -22.964635 -19.672382 -16.705661 -14.013304 -11.534656 -9.208690 -7.225010 -5.783206 -4.891743 -4.732879 -4.732879 -4.732879 13431.312877 13431.312877 13431.312877 13434.827263 13411.166895 13583.130871 13207.810305 11438.632364 10919.893269 11255.380753 10120.566110 10005.733234 11240.469576 10334.687630 8763.755578 8266.424925 7480.582052 6715.651947 5816.652827 5321.229848 4166.360622 3527.129247 2373.997501 1674.472322 1182.320502 890.374580 738.906416 690.638724 741.387828 916.647122 1328.655660 1301.916467 -618.699502 -1275.211583 -563.890211 -2.231030 602.013451 1244.302558 164.031347 -1220.124254 -791.799042 -152.635511 612.104120 559.364211 -1253.766378 -1503.120924 -554.407540 -247.754198 -1847.048438 -2531.819674 -2080.451170 -1805.478218 -1637.348156 -1525.117697 -1444.936860 -1384.809823 -1317.045474 -1232.889828 -1161.592950 -1097.186151 -1036.045095 -976.985068 -919.650012 -864.000159 -810.105143 -758.061164 -707.958467 -659.869757 -613.847404 -569.924211 -528.115467 -488.421264 -450.828681 -415.313658 -381.842577 -350.373566 -320.857613 -293.239517 -267.458754 -243.450277 -221.145275 -200.471899 -181.355967 -163.721640 -147.492059 -132.589953 -118.938196 -106.460315 -95.080948 -84.726243 -75.324212 -66.805014 -59.101197 -52.147884 -45.882904 -40.246871 -35.183188 -30.637950 -26.559614 -22.898165 -19.603023 -16.617747 -13.866281 -11.216110 -8.344309 -6.222504 -5.131222 -4.475250 -4.355070 -4.355070 -4.355070 -5.811207 -4.868182 -4.370056 -4.302646 -4.302646 -4.302646 -4.861061 -4.326611 -3.991050 -3.945105 -3.945105 -3.945105 -3.749012 -3.567441 -3.418080 -3.396999 -3.396999 -3.396999 -3.029768 -2.962480 -2.904443 -2.895869 -2.895869 -2.895869 -2.497949 -2.475125 -2.456130 -2.453433 -2.453433 -2.453433 -2.078177 -2.072941 -2.069849 -2.069584 -2.069584 -2.069584 -1.734786 -1.736308 -1.739269 -1.739922 -1.739922 -1.739922 -1.448866 -1.452708 -1.457629 -1.458563 -1.458563 -1.458563 -1.208928 -1.213291 -1.218516 -1.219476 -1.219476 -1.219476 -1.007032 -1.011219 -1.016116 -1.017004 -1.017004 -1.017004 -0.837136 -0.840902 -0.845265 -0.846053 -0.846053 -0.846053 -0.694344 -0.697634 -0.701429 -0.702112 -0.702112 -0.702112 -0.574561 -0.577392 -0.580651 -0.581237 -0.581237 -0.581237 -0.474304 -0.476719 -0.479497 -0.479996 -0.479996 -0.479996 -0.390592 -0.392641 -0.394995 -0.395419 -0.395419 -0.395419 -0.320868 -0.322599 -0.324588 -0.324945 -0.324945 -0.324945 -0.262942 -0.264399 -0.266074 -0.266374 -0.266374 -0.266374 -0.214942 -0.216165 -0.217570 -0.217822 -0.217822 -0.217822 -0.175269 -0.176292 -0.177468 -0.177679 -0.177679 -0.177679 -0.142563 -0.143417 -0.144398 -0.144574 -0.144574 -0.144574 -0.115671 -0.116381 -0.117198 -0.117345 -0.117345 -0.117345 -0.093617 -0.094207 -0.094884 -0.095006 -0.095006 -0.095006 -0.075579 -0.076066 -0.076627 -0.076728 -0.076728 -0.076728 -0.060862 -0.061265 -0.061727 -0.061811 -0.061811 -0.061811 -0.048888 -0.049219 -0.049600 -0.049668 -0.049668 -0.049668 -0.039171 -0.039442 -0.039755 -0.039811 -0.039811 -0.039811 -0.031305 -0.031528 -0.031783 -0.031829 -0.031829 -0.031829 -0.024956 -0.025137 -0.025346 -0.025384 -0.025384 -0.025384 -0.019844 -0.019991 -0.020161 -0.020192 -0.020192 -0.020192 -0.015739 -0.015858 -0.015996 -0.016021 -0.016021 -0.016021 -0.012451 -0.012548 -0.012660 -0.012680 -0.012680 -0.012680 -0.009825 -0.009903 -0.009993 -0.010009 -0.010009 -0.010009 -0.007733 -0.007796 -0.007868 -0.007881 -0.007881 -0.007881 -0.006071 -0.006121 -0.006179 -0.006190 -0.006190 -0.006190 -0.004754 -0.004794 -0.004841 -0.004849 -0.004849 -0.004849 -0.003713 -0.003745 -0.003782 -0.003789 -0.003789 -0.003789 -0.002892 -0.002918 -0.002948 -0.002953 -0.002953 -0.002953 -0.002247 -0.002268 -0.002291 -0.002295 -0.002295 -0.002295 -0.001742 -0.001758 -0.001776 -0.001780 -0.001780 -0.001780 -0.001346 -0.001359 -0.001374 -0.001376 -0.001376 -0.001376 -0.001038 -0.001048 -0.001060 -0.001062 -0.001062 -0.001062 -0.000798 -0.000806 -0.000815 -0.000817 -0.000817 -0.000817 -0.000612 -0.000618 -0.000626 -0.000627 -0.000627 -0.000627 -0.000468 -0.000473 -0.000479 -0.000480 -0.000480 -0.000480 -0.000357 -0.000361 -0.000365 -0.000366 -0.000366 -0.000366 -0.000272 -0.000275 -0.000278 -0.000279 -0.000279 -0.000279 -0.000206 -0.000209 -0.000211 -0.000212 -0.000212 -0.000212 -0.000156 -0.000158 -0.000160 -0.000160 -0.000160 -0.000160 -0.000118 -0.000119 -0.000121 -0.000121 -0.000121 -0.000121 -0.000089 -0.000090 -0.000091 -0.000091 -0.000091 -0.000091 -0.000067 -0.000068 -0.000068 -0.000069 -0.000069 -0.000069 -0.000050 -0.000051 -0.000051 -0.000051 -0.000051 -0.000051 -0.000037 -0.000038 -0.000038 -0.000038 -0.000038 -0.000038 -0.000028 -0.000028 -0.000029 -0.000029 -0.000029 -0.000029 -0.000021 -0.000021 -0.000021 -0.000021 -0.000021 -0.000021 -0.000015 -0.000016 -0.000016 -0.000016 -0.000016 -0.000016 -0.000011 -0.000012 -0.000012 -0.000012 -0.000012 -0.000012 -0.000008 -0.000008 -0.000009 -0.000009 -0.000009 -0.000009 -0.000006 -0.000006 -0.000006 -0.000006 -0.000006 -0.000006 -0.000005 -0.000005 -0.000005 -0.000005 -0.000005 -0.000005 -0.000003 -0.000003 -0.000003 -0.000003 -0.000003 -0.000003 -0.000002 -0.000002 -0.000002 -0.000002 -0.000002 -0.000002 -0.000002 -0.000002 -0.000002 -0.000002 -0.000002 -0.000002 -0.000001 -0.000001 -0.000001 -0.000001 -0.000001 -0.000001 -0.000001 -0.000001 -0.000001 -0.000001 -0.000001 -0.000001 -0.000001 -0.000001 -0.000001 -0.000001 -0.000001 -0.000001 -0.000000 -0.000000 -0.000000 -0.000000 -0.000000 -0.000000 -0.000000 -0.000000 -0.000000 -0.000000 -0.000000 -0.000000 -0.000000 -0.000000 -0.000000 -0.000000 -0.000000 -0.000000 -0.000000 -0.000000 -0.000000 -0.000000 -0.000000 -0.000000 -0.000000 -0.000000 -0.000000 -0.000000 -0.000000 -0.000000 -0.000000 -0.000000 -0.000000 -0.000000 -0.000000 -0.000000 -0.000000 -0.000000 -0.000000 -0.000000 -0.000000 -0.000000 -0.000000 -0.000000 -0.000000 -0.000000 -0.000000 -0.000000 -0.000000 -0.000000 -0.000000 -0.000000 -0.000000 -0.000000 -0.000000 -0.000000 -0.000000 -0.000000 -0.000000 -0.000000 -0.000000 -0.000000 -0.000000 -0.000000 -0.000000 -0.000000 -0.000000 -0.000000 -0.000000 -0.000000 -0.000000 -0.000000 -0.000000 -0.000000 -0.000000 -0.000000 -0.000000 -0.000000 -0.000000 -0.000000 -0.000000 -0.000000 -0.000000 -0.000000 -0.000000 -0.000000 -0.000000 -0.000000 -0.000000 -0.000000 -0.000000 -0.000000 -0.000000 -0.000000 -0.000000 -0.000000 -0.000000 -0.000000 -0.000000 -0.000000 -0.000000 -0.000000 -0.000000 -0.000000 -0.000000 -0.000000 -0.000000 -0.000000 -0.000000 -0.000000 -0.000000 0.000000 0.000000 0.000000 -0.000000 -0.000000 -0.000000 0.000000 0.000000 0.000000 -0.000000 -0.000000 -0.000000 0.000000 0.000000 0.000000 -0.000000 -0.000000 -0.000000 0.000000 0.000000 0.000000 -0.000000 -0.000000 -0.000000 0.000000 0.000000 0.000000 -0.000000 -0.000000 -0.000000 0.000000 0.000000 0.000000 -0.000000 -0.000000 -0.000000 0.000000 0.000000 0.000000 -0.000000 -0.000000 -0.000000 0.000000 0.000000 0.000000 -0.000000 -0.000000 -0.000000 0.000000 0.000000 0.000000 -0.000000 -0.000000 -0.000000 0.000000 0.000000 0.000000 -0.000000 -0.000000 -0.000000 0.000000 0.000000 0.000000 -0.000000 -0.000000 -0.000000 0.000000 0.000000 0.000000 -0.000000 -0.000000 -0.000000 0.000000 0.000000 0.000000 -0.000000 -0.000000 -0.000000 0.000000 0.000000 0.000000 -0.000000 -0.000000 -0.000000 0.000000 0.000000 0.000000 -0.000000 -0.000000 -0.000000 0.000000 0.000000 0.000000 -0.000000 -0.000000 -0.000000 0.000000 0.000000 0.000000 -0.000000 -0.000000 -0.000000 0.000000 0.000000 0.000000 -0.000000 -0.000000 -0.000000 0.000000 0.000000 0.000000 -0.000000 -0.000000 -0.000000 0.000000 0.000000 0.000000 -0.000000 -0.000000 -0.000000 0.000000 0.000000 0.000000 -0.000000 -0.000000 -0.000000 0.000000 0.000000 0.000000 -0.000000 -0.000000 -0.000000 0.000000 0.000000 0.000000 -0.000000 -0.000000 -0.000000 0.000000 0.000000 0.000000 -0.000000 -0.000000 -0.000000 0.000000 0.000000 0.000000 -0.000000 -0.000000 -0.000000 0.000000 0.000000 0.000000 -0.000000 -0.000000 -0.000000 0.000000 0.000000 0.000000 -0.000000 -0.000000 -0.000000 0.000000 0.000000 0.000000 -0.000000 -0.000000 -0.000000 0.000000 0.000000 0.000000 -0.000000 -0.000000 -0.000000 0.000000 0.000000 0.000000 -0.000000 -0.000000 -0.000000 0.000000 0.000000 0.000000 -0.000000 -0.000000 -0.000000 0.000000 0.000000 0.000000 -0.000000 -0.000000 -0.000000 0.000000 0.000000 0.000000 -0.000000 -0.000000 -0.000000 0.000000 0.000000 0.000000 0.000000 -0.000000 0.000000 0.000000 0.000000 0.000000 0.000000 0.000000 0.000000 0.000000 0.000000 0.000000 0.000000 0.000000 0.000000 0.000000 0.000000 0.000000 0.000000 0.000000 0.000000 0.000000 0.000000 0.000000 0.000000 0.000000 0.000000 0.000000 0.000000 0.000000 0.000000 0.000000 0.000000 0.000000 0.000000 0.000000 0.000000 0.000000 0.000000 0.000000 0.000000 0.000000 0.000000 0.000000 0.000000 0.000000 0.000000 0.000000 0.000000 0.000000 0.000000 0.000000 0.000000 0.000000 0.000000 0.000000 0.000000 0.000000 0.000000 0.000000 0.000000 0.000000 0.000000 0.000000 0.000000 0.000000 0.000001 0.000001 0.000001 0.000001 0.000001 0.000001 0.000001 0.000001 0.000001 0.000001 0.000001 0.000001 0.000002 0.000002 0.000002 0.000002 0.000002 0.000002 0.000003 0.000003 0.000003 0.000003 0.000003 0.000003 0.000005 0.000005 0.000005 0.000005 0.000005 0.000005 0.000009 0.000009 0.000009 0.000009 0.000009 0.000009 0.000014 0.000015 0.000016 0.000016 0.000016 0.000016 0.000024 0.000025 0.000026 0.000026 0.000026 0.000026 0.000040 0.000042 0.000043 0.000043 0.000043 0.000043 0.000066 0.000068 0.000071 0.000071 0.000071 0.000071 0.000107 0.000110 0.000115 0.000115 0.000115 0.000115 0.000172 0.000177 0.000184 0.000185 0.000185 0.000185 0.000274 0.000282 0.000291 0.000293 0.000293 0.000293 0.000431 0.000443 0.000457 0.000459 0.000459 0.000459 0.000671 0.000689 0.000709 0.000713 0.000713 0.000713 0.001033 0.001059 0.001089 0.001095 0.001095 0.001095 0.001575 0.001612 0.001655 0.001663 0.001663 0.001663 0.002373 0.002426 0.002488 0.002499 0.002499 0.002499 0.003537 0.003612 0.003698 0.003714 0.003714 0.003714 0.005214 0.005318 0.005437 0.005459 0.005459 0.005459 0.007601 0.007742 0.007905 0.007935 0.007935 0.007935 0.010956 0.011146 0.011365 0.011405 0.011405 0.011405 0.015611 0.015863 0.016154 0.016206 0.016206 0.016206 0.021990 0.022319 0.022698 0.022766 0.022766 0.022766 0.030615 0.031038 0.031524 0.031611 0.031611 0.031611 0.042122 0.042655 0.043268 0.043379 0.043379 0.043379 0.057261 0.057922 0.058681 0.058818 0.058818 0.058818 0.076897 0.077700 0.078622 0.078787 0.078787 0.078787 0.101990 0.102946 0.104041 0.104237 0.104237 0.104237 0.133565 0.134676 0.135947 0.136174 0.136174 0.136174 0.172660 0.173916 0.175350 0.175607 0.175607 0.175607 0.220242 0.221618 0.223188 0.223468 0.223468 0.223468 0.277107 0.278558 0.280209 0.280504 0.280504 0.280504 0.343735 0.345191 0.346844 0.347138 0.347138 0.347138 0.420130 0.421492 0.423032 0.423306 0.423306 0.423306 0.505622 0.506759 0.508038 0.508265 0.508265 0.508265 0.598657 0.599408 0.600240 0.600386 0.600386 0.600386 0.696587 0.696759 0.696925 0.696951 0.696951 0.696951 0.795463 0.794839 0.794092 0.793954 0.793954 0.793954 0.889876 0.888224 0.886299 0.885950 0.885950 0.885950 0.972854 0.969940 0.966570 0.965963 0.965963 0.965963 1.035852 1.031455 1.026393 1.025483 1.025483 1.025483 1.068858 1.062796 1.055836 1.054587 1.054587 1.054587 1.060647 1.052798 1.043803 1.042190 1.042190 1.042190 0.999188 0.989514 0.978445 0.976462 0.976462 0.976462 0.872219 0.860789 0.847729 0.845391 0.845391 0.845391 0.667971 0.654983 0.640161 0.637508 0.637508 0.637508 0.376031 0.361824 0.345626 0.342729 0.342729 0.342729 -0.011719 -0.026663 -0.043684 -0.046727 -0.046727 -0.046727 -0.500131 -0.515191 -0.532328 -0.535389 -0.535389 -0.535389 -1.089867 -1.104304 -1.120715 -1.123644 -1.123644 -1.123644 -1.776613 -1.789601 -1.804345 -1.806976 -1.806976 -1.806976 -2.550498 -2.561167 -2.573258 -2.575412 -2.575412 -2.575412 -3.395812 -3.403304 -3.411766 -3.413271 -3.413271 -3.413271 -4.291085 -4.294611 -4.298550 -4.299247 -4.299247 -4.299247 -5.209561 -5.208462 -5.207134 -5.206889 -5.206889 -5.206889 -6.120079 -6.113888 -6.106764 -6.105483 -6.105483 -6.105483 -6.988356 -6.976845 -6.963669 -6.961307 -6.961307 -6.961307 -7.778584 -7.761804 -7.742637 -7.739206 -7.739206 -7.739206 -8.455285 -8.433590 -8.408832 -8.404403 -8.404403 -8.404403 -8.985280 -8.959330 -8.929732 -8.924438 -8.924438 -8.924438 -9.339643 -9.310408 -9.277060 -9.271095 -9.271095 -9.271095 -9.495490 -9.464249 -9.428578 -9.422194 -9.422194 -9.422194 -9.437429 -9.405814 -9.369611 -9.363121 -9.363121 -9.363121 -9.158478 -9.128638 -9.094197 -9.087996 -9.087996 -9.087996 -8.660191 -8.635259 -8.605791 -8.600416 -8.600416 -8.600416 -7.951508 -7.936803 -7.917500 -7.913796 -7.913796 -7.913796 -7.045339 -7.051379 -7.051949 -7.051430 -7.051430 -7.051430 -5.950307 -6.000888 -6.041059 -6.046596 -6.046596 -6.046596 -4.649903 -4.807701 -4.927089 -4.943355 -4.943355 -4.943355 -3.035872 -3.517089 -3.761281 -3.793455 -3.793455 -3.793455 19737.133344 19737.133344 19737.133344 19553.986442 17284.484695 14124.382745 13930.822357 12675.486773 12635.417559 13821.640496 11753.200964 11275.061786 16265.947516 13029.885877 8541.941609 8805.867051 11189.759894 8552.638964 8229.268534 8935.721917 6681.623347 9393.541004 9090.356545 3003.384982 7088.264603 7974.411496 1583.776630 1787.992823 2176.755720 407.082447 -230.952085 8245.373485 1063.899183 -7305.360128 -2570.876239 284.396918 1722.032705 2417.901667 2780.971613 3208.009950 3796.307449 418.315557 -2645.408724 -1037.947754 167.713867 859.785002 1681.476799 3566.828615 1834.067385 -3168.552092 -2580.057019 -1266.647738 -772.596715 -541.824843 -425.671671 -358.421551 -311.872287 -273.919058 -239.545604 -206.865796 -175.374332 -145.162274 -116.555136 -89.938308 -65.668465 -44.027492 -25.200020 -9.265889 3.797059 14.102884 21.842512 27.265801 30.662511 32.343659 32.624497 31.809958 30.183128 27.996963 25.469184 22.780083 20.072790 17.455473 15.004905 12.770856 10.780842 9.044824 7.559577 6.312517 5.284899 4.454336 3.796673 3.287287 2.901903 2.617034 2.410148 2.259667 2.144862 2.045698 1.942600 1.815989 1.645187 1.405676 1.062090 0.550914 -0.302085 -1.381781 -2.120588 -2.526361 -2.599474 -2.599474 -2.599474 20449.690185 20449.690185 20449.690185 20318.980694 18826.111196 16429.466373 15718.343315 15649.260450 16083.151923 15737.301409 14238.816567 14201.210944 16032.276690 14538.154338 12420.785330 12314.700501 12979.512094 11669.915444 10975.552869 11567.460130 11140.914922 11158.163640 10516.353230 8791.365702 8487.020942 8223.321308 6827.265693 5864.452815 5355.895340 4747.579069 4499.957128 4793.056558 3318.115247 1292.756633 1251.502418 1992.055651 2523.356617 2759.060492 2813.650179 2758.099426 2502.305393 1096.720141 -67.561877 214.956717 555.138337 850.864844 1164.619681 1474.093228 763.010067 -840.552198 -980.942105 -749.448311 -555.133466 -447.053586 -383.303948 -339.238233 -303.111421 -269.908893 -237.738915 -206.109823 -175.142851 -145.210993 -116.766072 -90.249512 -66.042623 -44.438277 -25.626508 -9.690542 3.388920 13.723088 21.499940 26.966385 30.409360 32.137339 32.463414 31.690812 30.101403 27.947397 25.446203 22.778164 20.086747 17.480658 15.037328 12.807235 10.818595 9.082018 7.594845 6.344965 5.314005 4.479852 3.818541 3.305570 2.916729 2.628563 2.418556 2.265158 2.147717 2.046397 1.942088 1.816279 1.650733 1.426588 1.122306 0.710617 0.176774 -0.427755 -0.976344 -1.329391 -1.394476 -1.394476 -1.394476 20970.522474 20970.522474 20970.522474 20901.601729 20167.347615 18645.598640 17645.018632 17069.405730 16718.269710 16409.636057 16065.272487 15769.812961 15553.418167 15148.185204 14637.807804 14292.446116 14046.159806 13680.844644 13306.403351 13012.250712 12632.789451 12157.220858 11545.698992 10780.674902 10092.678648 9437.657953 8708.168903 7996.294506 7358.053827 6761.295310 6213.301274 5665.712400 4938.817058 4147.732365 3637.172692 3383.934969 3227.366485 3067.776591 2861.739616 2581.675379 2179.702732 1647.326116 1179.937543 947.600383 871.674530 851.003710 826.913086 716.411574 416.288453 15.397647 -241.596573 -339.710445 -364.291169 -360.282672 -344.016337 -321.358671 -294.920157 -266.150747 -236.048291 -205.415298 -174.954586 -145.300500 -117.021597 -90.610803 -66.471888 -44.907695 -26.113244 -10.175079 2.923108 13.289400 21.108490 26.623957 30.119546 31.900838 32.278464 31.553708 30.007041 27.889817 25.419074 22.775204 20.102046 17.508912 15.073974 12.848514 10.861543 9.124409 7.635100 6.382046 5.347298 4.509061 3.843590 3.326522 2.933725 2.641778 2.428185 2.271421 2.150906 2.046988 1.940998 1.815425 1.654289 1.443787 1.173499 0.839071 0.447975 0.026149 -0.393546 -0.692042 -0.753174 -0.753174 -0.753174 21048.362988 21048.362988 21048.362988 20986.587663 20344.920895 18959.566150 17930.128753 17254.247100 16839.886140 16543.470047 16242.105777 15934.196614 15632.006003 15263.915696 14864.307686 14532.397003 14244.561137 13911.050250 13553.922984 13202.970913 12790.815245 12289.635494 11688.803721 11002.436590 10318.285046 9648.850105 8961.851898 8278.591144 7632.816591 7023.982357 6439.881164 5839.283585 5166.244901 4482.135579 3940.834344 3581.520293 3333.357060 3115.144775 2870.982024 2563.636348 2168.343065 1709.096385 1301.694673 1044.357206 916.700355 851.829799 784.409951 646.501284 393.415834 84.126765 -154.117170 -283.132383 -335.502977 -346.857146 -337.883728 -318.557775 -293.633890 -265.559546 -235.782636 -205.307724 -174.928434 -145.319880 -117.068785 -90.676055 -66.548919 -44.991747 -26.200336 -10.261767 2.839757 13.211774 21.038396 26.562611 30.067595 31.858413 32.245255 31.529058 29.990043 27.879408 25.414125 22.774593 20.104718 17.513916 15.080494 12.855875 10.869214 9.131988 7.642304 6.388686 5.353263 4.514297 3.848082 3.330280 2.936773 2.644148 2.429912 2.272541 2.151469 2.047073 1.940752 1.815154 1.654649 1.446206 1.180992 0.857189 0.483910 0.083225 -0.320915 -0.609672 -0.667491 -0.667491 -0.667491 21048.362988 21048.362988 21048.362988 20986.587663 20344.920895 18959.566150 17930.128753 17254.247100 16839.886140 16543.470047 16242.105777 15934.196614 15632.006003 15263.915696 14864.307686 14532.397003 14244.561137 13911.050250 13553.922984 13202.970913 12790.815245 12289.635494 11688.803721 11002.436590 10318.285046 9648.850105 8961.851898 8278.591144 7632.816591 7023.982357 6439.881164 5839.283585 5166.244901 4482.135579 3940.834344 3581.520293 3333.357060 3115.144775 2870.982024 2563.636348 2168.343065 1709.096385 1301.694673 1044.357206 916.700355 851.829799 784.409951 646.501284 393.415834 84.126765 -154.117170 -283.132383 -335.502977 -346.857146 -337.883728 -318.557775 -293.633890 -265.559546 -235.782636 -205.307724 -174.928434 -145.319880 -117.068785 -90.676055 -66.548919 -44.991747 -26.200336 -10.261767 2.839757 13.211774 21.038396 26.562611 30.067595 31.858413 32.245255 31.529058 29.990043 27.879408 25.414125 22.774593 20.104718 17.513916 15.080494 12.855875 10.869214 9.131988 7.642304 6.388686 5.353263 4.514297 3.848082 3.330280 2.936773 2.644148 2.429912 2.272541 2.151469 2.047073 1.940752 1.815154 1.654649 1.446206 1.180992 0.857189 0.483910 0.083225 -0.320915 -0.609672 -0.667491 -0.667491 -0.667491 21048.362988 21048.362988 21048.362988 20986.587663 20344.920895 18959.566150 17930.128753 17254.247100 16839.886140 16543.470047 16242.105777 15934.196614 15632.006003 15263.915696 14864.307686 14532.397003 14244.561137 13911.050250 13553.922984 13202.970913 12790.815245 12289.635494 11688.803721 11002.436590 10318.285046 9648.850105 8961.851898 8278.591144 7632.816591 7023.982357 6439.881164 5839.283585 5166.244901 4482.135579 3940.834344 3581.520293 3333.357060 3115.144775 2870.982024 2563.636348 2168.343065 1709.096385 1301.694673 1044.357206 916.700355 851.829799 784.409951 646.501284 393.415834 84.126765 -154.117170 -283.132383 -335.502977 -346.857146 -337.883728 -318.557775 -293.633890 -265.559546 -235.782636 -205.307724 -174.928434 -145.319880 -117.068785 -90.676055 -66.548919 -44.991747 -26.200336 -10.261767 2.839757 13.211774 21.038396 26.562611 30.067595 31.858413 32.245255 31.529058 29.990043 27.879408 25.414125 22.774593 20.104718 17.513916 15.080494 12.855875 10.869214 9.131988 7.642304 6.388686 5.353263 4.514297 3.848082 3.330280 2.936773 2.644148 2.429912 2.272541 2.151469 2.047073 1.940752 1.815154 1.654649 1.446206 1.180992 0.857189 0.483910 0.083225 -0.320915 -0.609672 -0.667491 -0.667491 -0.667491 13453.564656 13453.564656 13453.564656 13456.209322 13371.484170 13600.664670 13293.802917 11291.910293 10852.672874 11378.753424 9957.428197 9854.942512 11399.538617 10342.385500 8596.593139 8293.557227 7486.721511 6768.032819 5821.141632 5385.772307 4169.522852 3625.615155 2328.249667 1697.149843 1194.169029 880.679310 733.199560 689.670407 746.831981 933.510577 1396.130917 1395.319406 -675.002145 -1381.991816 -593.636436 -2.292609 626.789561 1290.063159 178.266499 -1254.676443 -814.178523 -146.979056 653.694200 615.542241 -1253.714974 -1528.331398 -549.447729 -274.586161 -1937.517103 -2597.082632 -2105.785950 -1817.469695 -1643.649708 -1528.636247 -1447.344777 -1387.782093 13580.430758 13580.430758 13580.430758 13555.486280 13150.268491 13169.263833 11306.851101 16665.325371 12325.097062 11589.049060 10875.360029 11922.775292 15323.227388 15148.955449 11659.033840 13043.735819 14549.255753 12075.895821 15031.010605 14490.778855 13661.368785 14316.163822 14053.750774 13350.281487 14633.822815 15007.398547 15700.122111 12882.026237 11272.965153 13654.942513 13161.394421 14342.074447 13270.766246 13781.614170 14270.545013 14513.769502 11699.599320 11368.971232 13349.603439 13212.465207 14516.976173 13639.747587 13949.941307 14216.785088 14032.530439 12970.653316 12478.989212 14610.676340 14570.826244 12908.105970 13871.225660 13405.065786 14070.681259 3611.943730 -563.332714 -863.986973 13781.527931 13781.527931 13781.527931 13806.128652 14079.913080 13296.811951 11983.431778 12407.195830 10994.741272 13453.607520 13747.639605 11896.894006 13256.089390 10829.212863 11171.890727 12877.862770 12683.865364 14489.967385 12577.090388 13710.207235 14381.641498 13559.783488 12632.721431 13837.955470 12583.583194 14266.681105 12684.905458 15275.934945 13415.277963 14714.572465 13165.714241 12612.856581 13839.620499 16986.656696 13561.102696 14259.407342 12740.864753 13526.116350 14096.364062 10948.291989 9925.173028 12853.633268 13841.027095 13255.865551 13301.723303 13334.013868 12243.311035 14118.669354 13722.736253 11962.672925 14802.292003 14571.281539 6934.410404 9417.010859 -116.498417 43.663379 13924.805369 13924.805369 13924.805369 14064.632133 15768.926851 15245.014580 12226.721359 14636.260245 12378.780194 11094.996691 10049.793099 11289.513201 12880.421578 12673.283341 13484.977430 13109.973321 13778.174572 13951.148743 13211.701996 13702.820579 12626.426369 14071.259886 13631.945761 13161.933180 13409.587358 13590.407218 12457.749162 13055.203735 13520.876396 14356.734496 12089.765446 11964.640350 13208.235363 14616.028920 13176.272770 13786.189338 14810.281267 13547.338109 13566.714221 13992.790218 16518.752553 11795.846545 15542.106960 13479.181021 14577.276495 12359.678928 10852.301250 12473.690822 13343.027930 13681.954853 11797.094445 12910.430195 1564.434993 11958.804043 3773.744259 3840.436217 13911.778691 13911.778691 13911.778691 13941.973939 14576.433118 14107.114816 11412.0