<VTKFile type="PolyData">
<PolyData>
<Piece NumberOfPoints="8632" NumberOfVerts="8632" NumberOfLines="0" NumberOfStrips="0" NumberOfPolys="0">
<PointData>
<DataArray type="Float64" Name="Pressure" format="ascii">
 12758.396461 12758.396461 12758.396461 12751.730070 12675.799440 12473.704932 12232.401264 11952.791392 11645.462862 11303.330699 10907.759551 10449.582269 9935.261333 9380.328611 8801.272584 8213.864339 7629.827764 7051.027665 6475.064521 5908.275496 5365.324618 4852.321022 4363.774919 3891.411380 3430.904437 2986.854177 2568.627178 2180.397526 1815.272810 1457.312107 1093.688832 746.636487 482.777341 335.669680 273.184991 241.574121 185.555388 64.663804 -87.735830 -186.824318 -224.839464 -258.226050 -349.687427 -514.139326 -682.069180 -811.290259 -946.685750 -1131.074436 -1319.551726 -1437.242600 -1483.557258 -1488.189290 -1469.306415 -1436.547698 -1395.155298 -1347.751848 -1295.762515 -1240.677320 -1184.141858 -1127.339352 -1070.961937 -1015.427736 -961.007889 -907.890776 -856.213858 -806.080767 -757.571255 -710.747280 -665.656802 -622.336109 -580.811214 -541.098688 -503.206172 -467.132753 -432.869302 -400.398864 -369.697096 -340.732799 -313.468496 -287.861079 -263.862475 -241.420328 -220.478682 -200.978641 -182.858999 -166.056840 -150.508089 -136.148026 -122.911748 -110.734587 -99.552483 -89.302308 -79.922156 -71.351577 -63.531788 -56.405840 -49.918754 -44.017647 -38.651863 -33.773179 -29.336239 -25.299621 -21.628446 -18.300335 -15.316084 -12.700310 -10.433501 -8.973118 -8.697257 -8.697257 -8.697257 12758.396461 12758.396461 12758.396461 12751.730070 12675.799440 12473.704932 12232.401264 11952.791392 11645.462862 11303.330699 10907.759551 10449.582269 9935.261333 9380.328611 8801.272584 8213.864339 7629.827764 7051.027665 6475.064521 5908.275496 5365.324618 4852.321022 4363.774919 3891.411380 3430.904437 2986.854177 2568.627178 2180.397526 1815.272810 1457.312107 1093.688832 746.636487 482.777341 335.669680 273.184991 241.574121 185.555388 64.663804 -87.735830 -186.824318 -224.839464 -258.226050 -349.687427 -514.139326 -682.069180 -811.290259 -946.685750 -1131.074436 -1319.551726 -1437.242600 -1483.557258 -1488.189290 -1469.306415 -1436.547698 -1395.155298 -1347.751848 -1295.762515 -1240.677320 -1184.141858 -1127.339352 -1070.961937 -1015.427736 -961.007889 -907.890776 -856.213858 -806.080767 -757.571255 -710.747280 -665.656802 -622.336109 -580.811214 -541.098688 -503.206172 -467.132753 -432.869302 -400.398864 -369.697096 -340.732799 -313.468496 -287.861079 -263.862475 -241.420328 -220.478682 -200.978641 -182.858999 -166.056840 -150.508089 -136.148026 -122.911748 -110.734587 -99.552483 -89.302308 -79.922156 -71.351577 -63.531788 -56.405840 -49.918754 -44.017647 -38.651863 -33.773179 -29.336239 -25.299621 -21.628446 -18.300335 -15.316084 -12.700310 -10.433501 -8.973118 -8.697257 -8.697257 -8.697257 12758.396461 12758.396461 12758.396461 12751.730070 12675.799440 12473.704932 12232.401264 11952.791392 11645.462862 11303.330699 10907.759551 10449.582269 9935.261333 9380.328611 8801.272584 8213.864339 7629.827764 7051.027665 6475.064521 5908.275496 5365.324618 4852.321022 4363.774919 3891.411380 3430.904437 2986.854177 2568.627178 2180.397526 1815.272810 1457.312107 1093.688832 746.636487 482.777341 335.669680 273.184991 241.574121 185.555388 64.663804 -87.735830 -186.824318 -224.839464 -258.226050 -349.687427 -514.139326 -682.069180 -811.290259 -946.685750 -1131.074436 -1319.551726 -1437.242600 -1483.557258 -1488.189290 -1469.306415 -1436.547698 -1395.155298 -1347.751848 -1295.762515 -1240.677320 -1184.141858 -1127.339352 -1070.961937 -1015.427736 -961.007889 -907.890776 -856.213858 -806.080767 -757.571255 -710.747280 -665.656802 -622.336109 -580.811214 -541.098688 -503.206172 -467.132753 -432.869302 -400.398864 -369.697096 -340.732799 -313.468496 -287.861079 -263.862475 -241.420328 -220.478682 -200.978641 -182.858999 -166.056840 -150.508089 -136.148026 -122.911748 -110.734587 -99.552483 -89.302308 -79.922156 -71.351577 -63.531788 -56.405840 -49.918754 -44.017647 -38.651863 -33.773179 -29.336239 -25.299621 -21.628446 -18.300335 -15.316084 -12.700310 -10.433501 -8.973118 -8.697257 -8.697257 -8.697257 12765.129956 12765.129956 12765.129956 12758.915451 12687.481238 12494.575983 12254.743958 11971.564422 11666.853319 11330.839742 10936.518461 10473.255500 9952.610413 9393.985223 8811.403342 8218.127461 7629.905186 7049.376882 6469.517055 5895.999208 5353.385065 4847.433802 4368.641288 3906.185453 3449.694628 3003.382337 2580.556527 2189.631914 1825.033973 1467.928395 1094.408160 721.265970 444.438007 309.439423 265.822347 252.863573 209.913526 81.143681 -113.243727 -207.700454 -226.509806 -238.288773 -319.344872 -518.806767 -697.831436 -807.893002 -922.470621 -1134.852686 -1341.887658 -1459.559206 -1497.939291 -1496.030194 -1473.550895 -1438.991622 -1396.802039 -1349.066835 -1296.694268 -1241.174094 -1184.353911 -1127.418626 -1070.983756 -1015.424888 -960.994075 -907.871746 -856.192097 -806.057411 -757.546869 -710.722187 -665.631213 -622.310186 -580.785096 -541.072503 -503.180041 -467.106789 -432.843615 -400.373556 -369.672263 -340.708526 -313.444862 -287.838151 -263.840310 -241.398977 -220.458184 -200.959026 -182.840289 -166.039049 -150.491226 -136.132091 -122.896737 -110.720490 -99.539285 -89.289991 -79.910698 -71.340953 -63.521969 -56.396792 -49.910433 -44.009987 -38.644741 -33.766328 -29.329034 -25.290546 -21.613931 -18.273001 -15.268720 -12.639089 -10.382726 -8.932427 -8.658712 -8.658712 -8.658712 12840.778167 12840.778167 12840.778167 12842.075863 12847.718406 12790.119415 12563.456533 12213.337798 11938.001478 11693.988205 11297.161339 10733.731077 10105.764207 9514.271660 8906.061761 8234.523674 7588.722013 7005.616145 6380.721104 5699.467528 5151.880122 4732.092879 4372.438922 4049.403721 3661.932047 3194.673211 2716.472677 2292.638029 1940.608373 1618.463021 1182.098636 345.266210 -108.112265 -5.242261 181.353081 385.037198 607.025930 334.125664 -494.786059 -520.158320 -245.508802 29.808755 128.025834 -624.385796 -1039.034501 -777.346629 -607.546624 -1240.801546 -1808.293177 -1744.804847 -1658.015608 -1581.143306 -1519.446729 -1465.455811 -1415.038111 -1365.157098 -1308.343618 -1246.353142 -1186.475928 -1128.192172 -1071.191813 -1015.391974 -960.854074 -907.680672 -855.974175 -805.823731 -757.302988 -710.471266 -665.375352 -622.051000 -580.523971 -540.810709 -502.918780 -466.847208 -432.586803 -400.120538 -369.423989 -340.465861 -313.208579 -287.608930 -263.618735 -241.185532 -220.253264 -200.762937 -182.653253 -165.861211 -150.322660 -135.972808 -122.746688 -110.579577 -99.407363 -89.166877 -79.796171 -71.234763 -63.423829 -56.306365 -49.827285 -43.933461 -38.573633 -33.698045 -29.257469 -25.200737 -21.469149 -17.988606 -14.682887 -11.836787 -9.756104 -8.465746 -8.235425 -8.235425 -8.235425 12957.070115 12957.070115 12957.070115 12975.030044 13087.449692 13288.149760 13314.446231 12453.132794 12179.073599 12232.563050 11944.396121 10999.649780 10020.965383 9419.062441 9027.691971 8083.465098 7242.075335 6884.062025 6365.418222 5107.982007 4691.361854 4412.399861 4070.952067 4180.240971 3938.334479 3464.337668 2892.309919 2421.074853 2090.449115 1925.585113 1584.328422 -213.273762 -1108.341749 -449.371114 76.938738 559.511039 1201.838528 721.065343 -1002.433657 -966.466803 -267.487551 422.423515 788.295370 -774.992792 -1590.508399 -739.940028 -19.560702 -1176.520993 -2424.829637 -2150.135250 -1851.201481 -1681.469462 -1573.206618 -1496.473194 -1437.209792 -1389.103547 -1330.852104 -1255.518390 -1189.802822 -1129.405651 -1071.556419 -1015.404629 -960.714444 -907.470952 -855.729211 -805.559018 -757.025974 -710.185987 -665.084363 -621.756198 -580.226955 -540.512933 -502.621614 -466.551959 -432.294713 -399.832773 -369.141630 -340.189893 -312.939883 -287.348277 -263.366787 -240.942843 -220.020280 -200.540004 -182.440624 -165.659049 -150.131048 -135.791757 -122.576142 -110.419423 -99.257435 -89.026965 -79.666025 -71.114091 -63.312298 -56.203571 -49.732685 -43.846184 -38.491985 -33.618257 -29.170458 -25.083704 -21.262790 -17.528660 -13.423013 -10.359139 -8.774421 -7.819359 -7.644191 -7.644191 -7.644191 -9.757686 -8.386113 -7.659934 -7.561520 -7.561520 -7.561520 -8.332392 -7.551021 -7.060097 -6.992783 -6.992783 -6.992783 -6.628287 -6.361957 -6.142761 -6.111854 -6.111854 -6.111854 -5.493174 -5.394225 -5.308841 -5.296222 -5.296222 -5.296222 -4.630814 -4.597276 -4.569380 -4.565421 -4.565421 -4.565421 -3.933159 -3.925663 -3.921361 -3.921017 -3.921017 -3.921017 -3.349506 -3.352126 -3.356924 -3.357964 -3.357964 -3.357964 -2.853236 -2.859404 -2.867235 -2.868716 -2.868716 -2.868716 -2.428270 -2.435299 -2.443683 -2.445220 -2.445220 -2.445220 -2.063491 -2.070318 -2.078286 -2.079730 -2.079730 -2.079730 -1.750356 -1.756596 -1.763814 -1.765115 -1.765115 -1.765115 -1.481848 -1.487397 -1.493789 -1.494939 -1.494939 -1.494939 -1.251990 -1.256856 -1.262451 -1.263456 -1.263456 -1.263456 -1.055602 -1.059835 -1.064699 -1.065572 -1.065572 -1.065572 -0.888159 -0.891824 -0.896033 -0.896789 -0.896789 -0.896789 -0.745703 -0.748865 -0.752495 -0.753146 -0.753146 -0.753146 -0.624772 -0.627491 -0.630612 -0.631173 -0.631173 -0.631173 -0.522340 -0.524672 -0.527349 -0.527830 -0.527830 -0.527830 -0.435771 -0.437766 -0.440057 -0.440468 -0.440468 -0.440468 -0.362772 -0.364474 -0.366429 -0.366780 -0.366780 -0.366780 -0.301354 -0.302803 -0.304467 -0.304766 -0.304766 -0.304766 -0.249795 -0.251026 -0.252440 -0.252694 -0.252694 -0.252694 -0.206611 -0.207654 -0.208852 -0.209067 -0.209067 -0.209067 -0.170523 -0.171405 -0.172417 -0.172599 -0.172599 -0.172599 -0.140433 -0.141176 -0.142030 -0.142184 -0.142184 -0.142184 -0.115402 -0.116027 -0.116745 -0.116874 -0.116874 -0.116874 -0.094625 -0.095150 -0.095752 -0.095861 -0.095861 -0.095861 -0.077420 -0.077859 -0.078363 -0.078454 -0.078454 -0.078454 -0.063204 -0.063571 -0.063992 -0.064068 -0.064068 -0.064068 -0.051485 -0.051791 -0.052142 -0.052205 -0.052205 -0.052205 -0.041847 -0.042101 -0.042393 -0.042445 -0.042445 -0.042445 -0.033938 -0.034149 -0.034391 -0.034434 -0.034434 -0.034434 -0.027464 -0.027638 -0.027838 -0.027874 -0.027874 -0.027874 -0.022175 -0.022318 -0.022484 -0.022513 -0.022513 -0.022513 -0.017865 -0.017983 -0.018119 -0.018143 -0.018143 -0.018143 -0.014361 -0.014458 -0.014569 -0.014589 -0.014589 -0.014589 -0.011518 -0.011598 -0.011689 -0.011705 -0.011705 -0.011705 -0.009218 -0.009282 -0.009357 -0.009371 -0.009371 -0.009371 -0.007360 -0.007413 -0.007474 -0.007485 -0.007485 -0.007485 -0.005864 -0.005907 -0.005956 -0.005965 -0.005965 -0.005965 -0.004661 -0.004696 -0.004736 -0.004744 -0.004744 -0.004744 -0.003697 -0.003725 -0.003758 -0.003764 -0.003764 -0.003764 -0.002926 -0.002948 -0.002975 -0.002979 -0.002979 -0.002979 -0.002310 -0.002328 -0.002349 -0.002353 -0.002353 -0.002353 -0.001820 -0.001835 -0.001852 -0.001855 -0.001855 -0.001855 -0.001430 -0.001442 -0.001456 -0.001458 -0.001458 -0.001458 -0.001122 -0.001131 -0.001142 -0.001144 -0.001144 -0.001144 -0.000878 -0.000885 -0.000894 -0.000896 -0.000896 -0.000896 -0.000685 -0.000691 -0.000698 -0.000699 -0.000699 -0.000699 -0.000534 -0.000539 -0.000544 -0.000545 -0.000545 -0.000545 -0.000415 -0.000419 -0.000423 -0.000424 -0.000424 -0.000424 -0.000322 -0.000325 -0.000328 -0.000329 -0.000329 -0.000329 -0.000249 -0.000251 -0.000254 -0.000254 -0.000254 -0.000254 -0.000192 -0.000194 -0.000196 -0.000196 -0.000196 -0.000196 -0.000148 -0.000149 -0.000151 -0.000151 -0.000151 -0.000151 -0.000114 -0.000115 -0.000116 -0.000116 -0.000116 -0.000116 -0.000087 -0.000088 -0.000089 -0.000089 -0.000089 -0.000089 -0.000067 -0.000067 -0.000068 -0.000068 -0.000068 -0.000068 -0.000051 -0.000051 -0.000052 -0.000052 -0.000052 -0.000052 -0.000039 -0.000039 -0.000040 -0.000040 -0.000040 -0.000040 -0.000029 -0.000030 -0.000030 -0.000030 -0.000030 -0.000030 -0.000022 -0.000023 -0.000023 -0.000023 -0.000023 -0.000023 -0.000017 -0.000017 -0.000017 -0.000017 -0.000017 -0.000017 -0.000013 -0.000013 -0.000013 -0.000013 -0.000013 -0.000013 -0.000010 -0.000010 -0.000010 -0.000010 -0.000010 -0.000010 -0.000007 -0.000007 -0.000007 -0.000007 -0.000007 -0.000007 -0.000005 -0.000005 -0.000006 -0.000006 -0.000006 -0.000006 -0.000004 -0.000004 -0.000004 -0.000004 -0.000004 -0.000004 -0.000003 -0.000003 -0.000003 -0.000003 -0.000003 -0.000003 -0.000002 -0.000002 -0.000002 -0.000002 -0.000002 -0.000002 -0.000002 -0.000002 -0.000002 -0.000002 -0.000002 -0.000002 -0.000001 -0.000001 -0.000001 -0.000001 -0.000001 -0.000001 -0.000001 -0.000001 -0.000001 -0.000001 -0.000001 -0.000001 -0.000001 -0.000001 -0.000001 -0.000001 -0.000001 -0.000001 -0.000000 -0.000000 -0.000001 -0.000001 -0.000001 -0.000001 -0.000000 -0.000000 -0.000000 -0.000000 -0.000000 -0.000000 -0.000000 -0.000000 -0.000000 -0.000000 -0.000000 -0.000000 -0.000000 -0.000000 -0.000000 -0.000000 -0.000000 -0.000000 -0.000000 -0.000000 -0.000000 -0.000000 -0.000000 -0.000000 -0.000000 -0.000000 -0.000000 -0.000000 -0.000000 -0.000000 -0.000000 -0.000000 -0.000000 -0.000000 -0.000000 -0.000000 -0.000000 -0.000000 -0.000000 -0.000000 -0.000000 -0.000000 -0.000000 -0.000000 -0.000000 -0.000000 -0.000000 -0.000000 -0.000000 -0.000000 -0.000000 -0.000000 -0.000000 -0.000000 -0.000000 -0.000000 -0.000000 -0.000000 -0.000000 -0.000000 -0.000000 -0.000000 -0.000000 -0.000000 -0.000000 -0.000000 -0.000000 -0.000000 -0.000000 -0.000000 -0.000000 -0.000000 -0.000000 -0.000000 -0.000000 -0.000000 -0.000000 -0.000000 -0.000000 -0.000000 -0.000000 -0.000000 -0.000000 -0.000000 -0.000000 -0.000000 -0.000000 -0.000000 -0.000000 -0.000000 -0.000000 -0.000000 -0.000000 -0.000000 -0.000000 -0.000000 -0.000000 -0.000000 -0.000000 -0.000000 -0.000000 -0.000000 -0.000000 -0.000000 -0.000000 -0.000000 -0.000000 -0.000000 -0.000000 -0.000000 -0.000000 0.000000 0.000000 0.000000 -0.000000 -0.000000 -0.000000 0.000000 0.000000 0.000000 -0.000000 -0.000000 -0.000000 0.000000 0.000000 0.000000 -0.000000 -0.000000 -0.000000 0.000000 0.000000 0.000000 -0.000000 -0.000000 -0.000000 0.000000 0.000000 0.000000 -0.000000 -0.000000 -0.000000 0.000000 0.000000 0.000000 -0.000000 -0.000000 -0.000000 0.000000 0.000000 0.000000 -0.000000 -0.000000 -0.000000 0.000000 0.000000 0.000000 -0.000000 -0.000000 -0.000000 0.000000 0.000000 0.000000 -0.000000 -0.000000 -0.000000 0.000000 0.000000 0.000000 0.000000 -0.000000 0.000000 0.000000 0.000000 0.000000 0.000000 0.000000 0.000000 0.000000 0.000000 0.000000 0.000000 0.000000 0.000000 0.000000 0.000000 0.000000 0.000000 0.000000 0.000000 0.000000 0.000000 0.000000 0.000000 0.000000 0.000000 0.000000 0.000000 0.000000 0.000000 0.000000 0.000000 0.000000 0.000000 0.000000 0.000000 0.000000 0.000000 0.000000 0.000000 0.000000 0.000000 0.000000 0.000000 0.000000 0.000000 0.000000 0.000000 0.000000 0.000000 0.000000 0.000000 0.000000 0.000000 0.000000 0.000000 0.000000 0.000000 0.000000 0.000000 0.000000 0.000000 0.000000 0.000000 0.000000 0.000000 0.000000 0.000000 0.000000 0.000000 0.000000 0.000000 0.000000 0.000000 0.000000 0.000000 0.000000 0.000001 0.000001 0.000001 0.000001 0.000001 0.000001 0.000001 0.000001 0.000001 0.000001 0.000001 0.000001 0.000001 0.000001 0.000001 0.000001 0.000001 0.000001 0.000002 0.000002 0.000002 0.000002 0.000002 0.000002 0.000003 0.000003 0.000004 0.000004 0.000004 0.000004 0.000005 0.000005 0.000005 0.000005 0.000005 0.000005 0.000008 0.000008 0.000008 0.000008 0.000008 0.000008 0.000012 0.000012 0.000013 0.000013 0.000013 0.000013 0.000018 0.000019 0.000019 0.000019 0.000019 0.000019 0.000027 0.000028 0.000029 0.000029 0.000029 0.000029 0.000041 0.000041 0.000042 0.000043 0.000043 0.000043 0.000060 0.000061 0.000063 0.000063 0.000063 0.000063 0.000088 0.000090 0.000092 0.000093 0.000093 0.000093 0.000129 0.000131 0.000134 0.000135 0.000135 0.000135 0.000187 0.000190 0.000194 0.000195 0.000195 0.000195 0.000269 0.000274 0.000279 0.000280 0.000280 0.000280 0.000384 0.000391 0.000398 0.000400 0.000400 0.000400 0.000545 0.000554 0.000564 0.000566 0.000566 0.000566 0.000767 0.000779 0.000793 0.000796 0.000796 0.000796 0.001073 0.001089 0.001107 0.001111 0.001111 0.001111 0.001488 0.001510 0.001534 0.001539 0.001539 0.001539 0.002050 0.002078 0.002110 0.002115 0.002115 0.002115 0.002802 0.002838 0.002880 0.002887 0.002887 0.002887 0.003801 0.003847 0.003901 0.003911 0.003911 0.003911 0.005117 0.005176 0.005244 0.005257 0.005257 0.005257 0.006837 0.006911 0.006997 0.007012 0.007012 0.007012 0.009063 0.009156 0.009262 0.009282 0.009282 0.009282 0.011921 0.012035 0.012166 0.012190 0.012190 0.012190 0.015555 0.015694 0.015853 0.015882 0.015882 0.015882 0.020134 0.020301 0.020493 0.020527 0.020527 0.020527 0.025848 0.026047 0.026274 0.026315 0.026315 0.026315 0.032910 0.033142 0.033408 0.033456 0.033456 0.033456 0.041548 0.041816 0.042123 0.042178 0.042178 0.042178 0.052004 0.052308 0.052656 0.052718 0.052718 0.052718 0.064520 0.064859 0.065247 0.065316 0.065316 0.065316 0.079330 0.079700 0.080123 0.080198 0.080198 0.080198 0.096641 0.097035 0.097485 0.097565 0.097565 0.097565 0.116612 0.117019 0.117484 0.117567 0.117567 0.117567 0.139329 0.139734 0.140196 0.140278 0.140278 0.140278 0.164773 0.165157 0.165592 0.165669 0.165669 0.165669 0.192789 0.193124 0.193503 0.193571 0.193571 0.193571 0.223044 0.223299 0.223585 0.223636 0.223636 0.223636 0.254987 0.255124 0.255274 0.255300 0.255300 0.255300 0.287813 0.287787 0.287751 0.287744 0.287744 0.287744 0.320416 0.320179 0.319901 0.319850 0.319850 0.319850 0.351361 0.350861 0.350279 0.350174 0.350174 0.350174 0.378856 0.378035 0.377088 0.376917 0.376917 0.376917 0.400732 0.399536 0.398160 0.397912 0.397912 0.397912 0.414450 0.412826 0.410960 0.410625 0.410625 0.410625 0.417114 0.415016 0.412608 0.412176 0.412176 0.412176 0.405517 0.402907 0.399915 0.399378 0.399378 0.399378 0.376202 0.373056 0.369453 0.368807 0.368807 0.368807 0.325556 0.321868 0.317649 0.316892 0.316892 0.316892 0.249932 0.245719 0.240901 0.240038 0.240038 0.240038 0.145794 0.141096 0.135727 0.134766 0.134766 0.134766 0.009883 0.004769 -0.001073 -0.002119 -0.002119 -0.002119 -0.160594 -0.166027 -0.172229 -0.173339 -0.173339 -0.173339 -0.367766 -0.373389 -0.379806 -0.380954 -0.380954 -0.380954 -0.612899 -0.618558 -0.625011 -0.626166 -0.626166 -0.626166 -0.896206 -0.901718 -0.908001 -0.909124 -0.909124 -0.909124 -1.216671 -1.221834 -1.227715 -1.228766 -1.228766 -1.228766 -1.571913 -1.576511 -1.581742 -1.582677 -1.582677 -1.582677 -1.958089 -1.961897 -1.966225 -1.966998 -1.966998 -1.966998 -2.369850 -2.372649 -2.375823 -2.376389 -2.376389 -2.376389 -2.800367 -2.801949 -2.803735 -2.804052 -2.804052 -2.804052 -3.241422 -3.241607 -3.241797 -3.241828 -3.241828 -3.241828 -3.683575 -3.682216 -3.680644 -3.680361 -3.680361 -3.680361 -4.116405 -4.113400 -4.109953 -4.109334 -4.109334 -4.109334 -4.528813 -4.524117 -4.518741 -4.517778 -4.517778 -4.517778 -4.909392 -4.903019 -4.895732 -4.894427 -4.894427 -4.894427 -5.246833 -5.238863 -5.229757 -5.228126 -5.228126 -5.228126 -5.530362 -5.520943 -5.510186 -5.508261 -5.508261 -5.508261 -5.750184 -5.739532 -5.727369 -5.725192 -5.725192 -5.725192 -5.897905 -5.886302 -5.873052 -5.870680 -5.870680 -5.870680 -5.966915 -5.954712 -5.940769 -5.938272 -5.938272 -5.938272 -5.952687 -5.940322 -5.926166 -5.923628 -5.923628 -5.923628 -5.852973 -5.841014 -5.827252 -5.824779 -5.824779 -5.824779 -5.667808 -5.657082 -5.644568 -5.642301 -5.642301 -5.642301 -5.399217 -5.391133 -5.381254 -5.379421 -5.379421 -5.379421 -5.050352 -5.047673 -5.043054 -5.042072 -5.042072 -5.042072 -4.623419 -4.632180 -4.638308 -4.639024 -4.639024 -4.639024 -4.114789 -4.149354 -4.178110 -4.182248 -4.182248 -4.182248 -3.502435 -3.601293 -3.677405 -3.687933 -3.687933 -3.687933 -2.703642 -3.000589 -3.155570 -3.176130 -3.176130 -3.176130 17244.240124 17244.240124 17244.240124 17211.213135 17042.327776 16664.502384 15823.126439 15685.333058 15738.636941 14344.807216 15700.413394 14589.646004 13800.184669 15837.492859 16886.389842 15643.094613 15914.528742 15555.191690 16036.744163 16105.323662 20351.803129 19121.824030 16714.606344 16484.179971 12742.476799 6116.881409 1744.245454 226.146513 4411.611829 7626.498695 6094.494868 4931.035324 4241.168073 3819.381066 3560.978068 3497.834868 3922.369316 5235.684208 1028.530528 -3568.270638 -1574.130548 -81.670446 770.117523 1786.495036 3943.282841 1537.682369 -3618.967562 -2626.400464 -1332.049778 -832.000863 -597.690956 -480.768111 -415.412991 -372.913081 -340.604417 -312.904763 -287.359698 -262.911757 -239.142908 -215.937836 -193.328664 -171.418982 -150.343760 -130.246378 -111.264451 -93.520575 -77.116158 -62.127420 -48.603109 -36.563684 -26.001789 -16.883845 -9.152588 -2.730341 2.477199 6.576886 9.683978 11.918109 13.399554 14.245901 14.569244 14.473924 14.054851 13.396394 12.571780 11.642974 10.660937 9.666205 8.689706 7.753741 6.873055 6.055959 5.305431 4.620182 3.995645 3.424879 2.899353 2.409612 1.945765 1.497712 1.054884 0.604973 0.130257 -0.401700 -1.084612 -1.824290 -2.319222 -2.596429 -2.646223 -2.646223 -2.646223 17374.007635 17374.007635 17374.007635 17336.666893 17047.847470 16315.044775 15338.153708 15584.790044 16030.169650 14910.720283 14316.641950 13578.023634 13218.953787 13977.788887 14307.671145 13336.496201 12733.748281 12375.291955 12060.282312 11768.008973 12737.228954 12874.162246 12776.634867 12572.716978 11087.777940 9015.025184 7321.358614 6436.213278 6497.355103 6393.841884 5555.730037 4728.867078 4164.515881 3768.915763 3476.253537 3276.736114 3172.688226 2933.517187 1488.530607 9.439273 83.359512 441.232892 794.243467 1169.012797 1500.692155 647.308379 -943.752536 -1028.190971 -802.903240 -607.882577 -499.200144 -436.467373 -395.283540 -363.714707 -336.393219 -310.983404 -286.496588 -262.543666 -239.012944 -215.929389 -193.388851 -171.523405 -150.480397 -130.408321 -111.446715 -93.718762 -77.325964 -62.344514 -48.823185 -36.782576 -26.215598 -17.089065 -9.346206 -2.909910 2.313521 6.430326 9.555167 11.807126 13.305986 14.168923 14.507697 14.426402 14.019788 13.372134 12.556655 11.635353 10.659277 9.669085 8.695853 7.762038 6.882555 6.065877 5.315142 4.629212 4.003662 3.431688 2.904908 2.414054 1.949536 1.501833 1.061637 0.619543 0.165017 -0.315179 -0.825936 -1.334936 -1.776678 -2.060307 -2.112022 -2.112022 -2.112022 17442.846900 17442.846900 17442.846900 17414.090368 17087.885285 16298.346954 15572.077689 15041.316695 14615.935704 14145.366671 13706.360864 13312.620376 13020.502324 12831.680709 12589.876519 12172.062656 11666.424449 11161.133024 10675.663499 10273.040173 10032.356143 9831.437369 9606.023735 9332.178127 8897.241654 8336.441692 7717.640525 7080.259191 6464.053638 5807.484791 5136.545117 4556.991241 4096.647981 3723.570511 3401.296648 3100.195705 2782.193221 2369.280047 1804.536608 1263.281142 963.317198 853.525928 824.911687 803.393403 690.041174 374.955116 -33.386990 -287.708849 -385.521150 -411.483332 -409.166990 -395.472291 -376.584200 -355.159718 -332.475675 -309.197772 -285.698201 -262.209195 -238.903967 -215.937904 -193.465985 -171.646567 -150.638270 -130.594126 -111.655275 -93.945297 -77.565676 -62.592520 -49.074603 -37.032666 -26.459920 -17.323623 -9.567561 -3.115266 2.126272 6.262592 9.407676 11.679978 13.198720 14.080604 14.437011 14.371754 13.979392 13.344109 12.539095 11.626399 10.657167 9.672197 8.702727 7.771400 6.893317 6.077141 5.326190 4.639497 4.012799 3.439447 2.911217 2.419037 1.953613 1.505978 1.067995 0.632843 0.195682 -0.245007 -0.684531 -1.108994 -1.504438 -1.773792 -1.826401 -1.826401 -1.826401 17451.644560 17451.644560 17451.644560 17423.145781 17109.704799 16349.533444 15636.990101 15042.433932 14545.169966 14080.089799 13652.376751 13276.331273 12968.298999 12708.393873 12410.353002 12007.474669 11530.797626 11033.148073 10545.258292 10108.800704 9761.936924 9469.811769 9197.415911 8921.011322 8591.817314 8182.278457 7673.799431 7069.323087 6405.721496 5722.708214 5079.583055 4531.755434 4086.477813 3716.694850 3389.979447 3075.363114 2735.814444 2326.429921 1842.049722 1384.902369 1073.797132 910.648298 830.527728 758.961414 617.178469 356.332415 41.707571 -197.868242 -327.933349 -381.884418 -395.250519 -389.082149 -373.661762 -353.821505 -331.862750 -308.918609 -285.573842 -262.157836 -238.888372 -215.941232 -193.480628 -171.669003 -150.666712 -130.627473 -111.692649 -93.985868 -77.608596 -62.636923 -49.119616 -37.077444 -26.503670 -17.365629 -9.607209 -3.152055 2.092720 6.232529 9.381234 11.657176 13.179476 14.064752 14.424317 14.361932 13.972125 13.339059 12.535922 11.624770 10.656768 9.672735 8.703942 7.773064 6.895235 6.079151 5.328163 4.641335 4.014433 3.440834 2.912343 2.419920 1.954320 1.506665 1.068998 0.634895 0.200317 -0.235015 -0.665835 -1.080722 -1.470684 -1.736416 -1.788081 -1.788081 -1.788081 17451.644560 17451.644560 17451.644560 17423.145781 17109.704799 16349.533444 15636.990101 15042.433932 14545.169966 14080.089799 13652.376751 13276.331273 12968.298999 12708.393873 12410.353002 12007.474669 11530.797626 11033.148073 10545.258292 10108.800704 9761.936924 9469.811769 9197.415911 8921.011322 8591.817314 8182.278457 7673.799431 7069.323087 6405.721496 5722.708214 5079.583055 4531.755434 4086.477813 3716.694850 3389.979447 3075.363114 2735.814444 2326.429921 1842.049722 1384.902369 1073.797132 910.648298 830.527728 758.961414 617.178469 356.332415 41.707571 -197.868242 -327.933349 -381.884418 -395.250519 -389.082149 -373.661762 -353.821505 -331.862750 -308.918609 -285.573842 -262.157836 -238.888372 -215.941232 -193.480628 -171.669003 -150.666712 -130.627473 -111.692649 -93.985868 -77.608596 -62.636923 -49.119616 -37.077444 -26.503670 -17.365629 -9.607209 -3.152055 2.092720 6.232529 9.381234 11.657176 13.179476 14.064752 14.424317 14.361932 13.972125 13.339059 12.535922 11.624770 10.656768 9.672735 8.703942 7.773064 6.895235 6.079151 5.328163 4.641335 4.014433 3.440834 2.912343 2.419920 1.954320 1.506665 1.068998 0.634895 0.200317 -0.235015 -0.665835 -1.080722 -1.470684 -1.736416 -1.788081 -1.788081 -1.788081 17451.644560 17451.644560 17451.644560 17423.145781 17109.704799 16349.533444 15636.990101 15042.433932 14545.169966 14080.089799 13652.376751 13276.331273 12968.298999 12708.393873 12410.353002 12007.474669 11530.797626 11033.148073 10545.258292 10108.800704 9761.936924 9469.811769 9197.415911 8921.011322 8591.817314 8182.278457 7673.799431 7069.323087 6405.721496 5722.708214 5079.583055 4531.755434 4086.477813 3716.694850 3389.979447 3075.363114 2735.814444 2326.429921 1842.049722 1384.902369 1073.797132 910.648298 830.527728 758.961414 617.178469 356.332415 41.707571 -197.868242 -327.933349 -381.884418 -395.250519 -389.082149 -373.661762 -353.821505 -331.862750 -308.918609 -285.573842 -262.157836 -238.888372 -215.941232 -193.480628 -171.669003 -150.666712 -130.627473 -111.692649 -93.985868 -77.608596 -62.636923 -49.119616 -37.077444 -26.503670 -17.365629 -9.607209 -3.152055 2.092720 6.232529 9.381234 11.657176 13.179476 14.064752 14.424317 14.361932 13.972125 13.339059 12.535922 11.624770 10.656768 9.672735 8.703942 7.773064 6.895235 6.079151 5.328163 4.641335 4.014433 3.440834 2.912343 2.419920 1.954320 1.506665 1.068998 0.634895 0.200317 -0.235015 -0.665835 -1.080722 -1.470684 -1.736416 -1.788081 -1.788081 -1.788081 12974.910065 12974.910065 12974.910065 12996.436177 13081.252478 13329.022646 13413.636306 12413.356655 12159.298830 12277.866212 11977.982991 10977.294551 9915.090021 9340.457487 9044.012482 8053.977621 7140.536859 6827.636544 6408.387941 4972.725151 4612.711713 4353.006046 3969.488322 4145.938420 3941.770110 3515.675445 2918.494629 2430.439311 2101.996094 1967.458450 1666.036074 -254.660476 -1235.931684 -494.520139 68.869693 573.269568 1245.251801 754.151531 -1025.586064 -996.501860 -269.196035 450.959589 831.239249 -781.248167 -1623.288156 -736.078622 47.118453 -1105.579909 -2434.075444 -2178.922194 -1865.568444 -1688.758335 -1577.103204 -1498.727196 -1438.893020 -1391.460109 13098.315203 13098.315203 13098.315203 13101.786578 12779.884417 12978.164796 12373.876575 16073.328065 13109.186949 13662.030484 14404.573701 13348.101257 17261.822920 16052.598587 14742.322903 14008.418623 16906.887641 14864.996844 14765.811622 16157.584800 14412.115352 17165.859782 16405.994543 14559.848487 14502.139841 15634.922240 15336.464474 15541.832151 13969.412331 14807.819565 15485.843702 14592.280575 15145.306652 14788.527095 13704.944754 14402.835931 13621.402600 12967.118430 14175.411791 15144.219843 14417.368721 14033.839620 15306.248376 14094.856838 16138.882731 14314.240512 12565.398916 14070.748989 14741.548636 13532.652982 14106.468460 13481.089239 15123.058423 3264.421597 -504.234565 -1529.211497 13257.924206 13257.924206 13257.924206 13233.900921 12723.186125 13289.813591 12706.017659 12917.889115 11431.576838 13852.125636 14818.799044 14837.108361 12319.065016 14698.655951 11783.365883 11696.224995 14498.675195 14702.520943 13562.048367 13721.338192 13912.892726 14676.185573 13565.803977 14740.869417 14495.169923 14552.247734 14125.991893 15339.196827 13173.498239 15237.910891 14077.106742 13824.012045 14899.256779 15418.222660 13834.618338 14193.515032 12699.804094 13641.673997 14421.254297 14741.874768 15688.302843 14003.732281 14288.118481 14189.585658 15807.082401 14892.311992 14618.843243 14340.961517 16744.545759 13399.547159 13884.238493 13573.811781 5747.718811 9700.902179 -432.345615 -24.028225 13373.744465 13373.744465 13373.744465 13390.587596 13325.676152 13444.976963 12174.094527 15497.238284 13474.162994 13688.745999 13162.937220 13694.159017 13706.484759 14936.110375 14844.415528 13469.104814 16106.890200 13844.727472 13246.735745 12765.448140 14814.309030 14046.065301 13560.675374 14550.312927 15082.301217 15791.313995 12473.252525 14378.548302 15405.536422 15211.325076 15570.398951 14317.756874 15149.585487 15272.371463 13887.331480 14248.957067 12837.646368 11676.202765 11891.426822 15578.734135 14479.669477 14548.470155 15107.935706 14190.295263 14279.268399 13964.138419 14800.476705 15500.522555 14223.243115 14532.671131 12400.143638 148