<VTKFile type="PolyData">
<PolyData>
<Piece NumberOfPoints="8632" NumberOfVerts="8632" NumberOfLines="0" NumberOfStrips="0" NumberOfPolys="0">
<PointData>
<DataArray type="Float64" Name="Pressure" format="ascii">
 12761.290093 12761.290093 12761.290093 12754.845464 12682.042449 12490.590982 12261.134313 11985.707393 11672.491075 11321.639130 10916.443053 10446.467139 9924.260420 9371.040145 8797.632440 8209.015874 7617.539346 7032.631518 6452.862678 5884.274058 5343.942293 4838.716076 4364.766076 3914.404813 3477.179302 3048.622872 2633.023926 2236.187570 1857.073980 1485.052973 1110.515262 758.003351 493.816406 347.655847 284.832349 250.883055 190.601575 65.446669 -88.077791 -186.634879 -225.530645 -262.214289 -359.793841 -528.136843 -693.040310 -819.845208 -960.495959 -1149.858020 -1328.758167 -1438.658724 -1483.424493 -1487.088479 -1467.556175 -1434.759490 -1393.674577 -1346.740439 -1295.273617 -1240.696996 -1184.616687 -1128.199551 -1072.136753 -1016.853276 -962.630253 -909.666433 -858.108560 -808.067815 -759.629658 -712.860110 -667.809864 -624.516969 -583.008552 -543.301903 -505.405189 -469.317960 -435.031573 -402.529620 -371.788382 -342.777353 -315.459808 -289.793422 -265.730921 -243.220745 -222.207712 -202.633664 -184.438095 -167.558736 -151.932112 -137.494043 -124.180116 -111.926096 -100.668303 -90.343943 -80.891387 -72.250422 -64.362456 -57.170687 -50.620250 -44.658338 -39.234339 -34.300049 -29.810120 -25.723138 -22.004281 -18.631369 -15.605707 -12.952750 -10.653151 -9.171427 -8.891516 -8.891516 -8.891516 12761.290093 12761.290093 12761.290093 12754.845464 12682.042449 12490.590982 12261.134313 11985.707393 11672.491075 11321.639130 10916.443053 10446.467139 9924.260420 9371.040145 8797.632440 8209.015874 7617.539346 7032.631518 6452.862678 5884.274058 5343.942293 4838.716076 4364.766076 3914.404813 3477.179302 3048.622872 2633.023926 2236.187570 1857.073980 1485.052973 1110.515262 758.003351 493.816406 347.655847 284.832349 250.883055 190.601575 65.446669 -88.077791 -186.634879 -225.530645 -262.214289 -359.793841 -528.136843 -693.040310 -819.845208 -960.495959 -1149.858020 -1328.758167 -1438.658724 -1483.424493 -1487.088479 -1467.556175 -1434.759490 -1393.674577 -1346.740439 -1295.273617 -1240.696996 -1184.616687 -1128.199551 -1072.136753 -1016.853276 -962.630253 -909.666433 -858.108560 -808.067815 -759.629658 -712.860110 -667.809864 -624.516969 -583.008552 -543.301903 -505.405189 -469.317960 -435.031573 -402.529620 -371.788382 -342.777353 -315.459808 -289.793422 -265.730921 -243.220745 -222.207712 -202.633664 -184.438095 -167.558736 -151.932112 -137.494043 -124.180116 -111.926096 -100.668303 -90.343943 -80.891387 -72.250422 -64.362456 -57.170687 -50.620250 -44.658338 -39.234339 -34.300049 -29.810120 -25.723138 -22.004281 -18.631369 -15.605707 -12.952750 -10.653151 -9.171427 -8.891516 -8.891516 -8.891516 12761.290093 12761.290093 12761.290093 12754.845464 12682.042449 12490.590982 12261.134313 11985.707393 11672.491075 11321.639130 10916.443053 10446.467139 9924.260420 9371.040145 8797.632440 8209.015874 7617.539346 7032.631518 6452.862678 5884.274058 5343.942293 4838.716076 4364.766076 3914.404813 3477.179302 3048.622872 2633.023926 2236.187570 1857.073980 1485.052973 1110.515262 758.003351 493.816406 347.655847 284.832349 250.883055 190.601575 65.446669 -88.077791 -186.634879 -225.530645 -262.214289 -359.793841 -528.136843 -693.040310 -819.845208 -960.495959 -1149.858020 -1328.758167 -1438.658724 -1483.424493 -1487.088479 -1467.556175 -1434.759490 -1393.674577 -1346.740439 -1295.273617 -1240.696996 -1184.616687 -1128.199551 -1072.136753 -1016.853276 -962.630253 -909.666433 -858.108560 -808.067815 -759.629658 -712.860110 -667.809864 -624.516969 -583.008552 -543.301903 -505.405189 -469.317960 -435.031573 -402.529620 -371.788382 -342.777353 -315.459808 -289.793422 -265.730921 -243.220745 -222.207712 -202.633664 -184.438095 -167.558736 -151.932112 -137.494043 -124.180116 -111.926096 -100.668303 -90.343943 -80.891387 -72.250422 -64.362456 -57.170687 -50.620250 -44.658338 -39.234339 -34.300049 -29.810120 -25.723138 -22.004281 -18.631369 -15.605707 -12.952750 -10.653151 -9.171427 -8.891516 -8.891516 -8.891516 12768.382754 12768.382754 12768.382754 12762.185174 12692.095336 12508.227875 12283.899689 12007.109531 11692.872246 11347.835119 10946.411806 10470.186476 9938.907396 9381.979365 8808.978056 8215.700203 7619.222203 7034.602319 6451.705433 5873.903179 5330.085674 4824.953227 4353.130548 3909.859123 3479.558985 3055.100557 2640.950650 2244.617066 1866.981809 1495.543133 1110.076846 731.088774 455.046554 321.699938 277.857101 262.488491 214.705600 79.999022 -114.285706 -207.209204 -226.771861 -243.487276 -334.382764 -539.779075 -712.040613 -820.286802 -950.672322 -1172.436429 -1363.832830 -1463.502267 -1497.541345 -1494.784824 -1471.729548 -1437.162081 -1395.294744 -1348.036529 -1296.193456 -1241.188185 -1184.826958 -1128.278683 -1072.159014 -1016.851003 -962.616975 -909.647852 -858.087159 -808.044745 -759.605506 -712.835213 -667.784448 -624.491205 -582.982584 -543.275861 -505.379194 -469.292125 -435.006008 -402.504424 -371.763651 -342.753172 -315.436253 -289.770562 -265.708814 -243.199440 -222.187249 -202.614075 -184.419402 -167.540955 -151.915250 -137.478103 -124.165093 -111.911981 -100.655084 -90.331600 -80.879899 -72.239766 -64.352603 -57.161604 -50.611893 -44.650640 -39.227175 -34.293151 -29.802853 -25.713964 -21.989575 -18.603639 -15.557626 -12.890573 -10.601542 -9.130032 -8.852289 -8.852289 -8.852289 12845.787542 12845.787542 12845.787542 12843.926995 12816.058402 12730.027549 12586.463181 12292.257453 11960.137721 11723.883873 11404.293457 10845.735641 10177.626149 9586.675511 9044.508671 8385.879066 7712.468785 7152.473120 6529.085972 5801.001736 5198.632755 4673.990995 4190.433909 3818.928990 3474.968453 3107.644479 2721.964458 2337.082264 1984.543919 1646.704444 1181.386192 328.963275 -98.036821 11.251262 198.459302 399.086621 613.464373 307.022413 -507.107736 -510.163790 -240.327588 26.992557 80.518285 -701.748886 -1063.221041 -794.609504 -702.246264 -1397.884365 -1876.535122 -1749.836776 -1654.827924 -1578.492882 -1516.867549 -1463.181336 -1413.239287 -1363.901482 -1307.697406 -1246.309384 -1186.931315 -1129.051108 -1072.371634 -1016.823893 -962.482358 -909.461266 -857.872828 -807.813927 -759.363952 -712.586257 -667.530319 -624.233605 -582.722950 -543.015488 -505.119290 -469.033832 -434.750406 -402.252527 -371.516398 -342.511420 -315.200772 -289.542029 -265.487812 -242.986460 -221.982689 -202.418247 -184.232535 -167.363203 -151.746694 -137.318761 -124.014925 -111.770895 -100.522943 -90.208227 -80.765082 -72.133259 -64.254124 -57.070821 -50.528375 -44.573730 -39.155658 -34.224403 -29.730680 -25.623178 -21.842888 -18.315118 -14.962960 -12.075804 -9.964636 -8.655223 -8.421486 -8.421486 -8.421486 12962.325817 12962.325817 12962.325817 12971.447224 13010.703756 13144.053273 13692.305101 13285.333449 12549.016015 12731.479208 12823.850884 11896.011036 10934.960179 10173.947542 10008.011050 9091.582561 8095.794063 7902.362886 7299.155441 5798.321910 5288.868845 4652.677787 3777.976692 3593.805920 3331.011929 3072.225214 2807.984504 2448.865960 2136.599328 1963.104856 1560.768545 -284.658437 -1092.492151 -418.871647 100.880955 583.406627 1217.649656 666.063916 -1029.585333 -942.820172 -254.781251 432.976086 705.564027 -916.934687 -1609.683898 -725.220505 -178.690520 -1499.212244 -2531.719981 -2131.159875 -1843.258596 -1677.312209 -1569.782187 -1493.692817 -1435.065019 -1387.521231 -1329.928753 -1255.368770 -1190.226291 -1130.258895 -1072.739691 -1016.842425 -962.348527 -909.256485 -857.631855 -807.552408 -759.089545 -712.303187 -667.241283 -623.940598 -582.427626 -542.719326 -504.823668 -468.740051 -434.459694 -401.966038 -371.235201 -342.236491 -314.932986 -289.282156 -265.236516 -242.744297 -221.750113 -202.195610 -184.020097 -167.161136 -151.555091 -137.137641 -123.844242 -111.610543 -100.372765 -90.068021 -80.634604 -72.012225 -64.142207 -56.967622 -50.433353 -44.486010 -39.073532 -34.144051 -29.642886 -25.504800 -21.633718 -17.848397 -13.684070 -10.575169 -8.966813 -7.997410 -7.819605 -7.819605 -7.819605 -9.964560 -8.572442 -7.835321 -7.735418 -7.735418 -7.735418 -8.516038 -7.722793 -7.224398 -7.156056 -7.156056 -7.156056 -6.782651 -6.512238 -6.289678 -6.258298 -6.258298 -6.258298 -5.626662 -5.526185 -5.439481 -5.426666 -5.426666 -5.426666 -4.747494 -4.713438 -4.685112 -4.681091 -4.681091 -4.681091 -4.035549 -4.027943 -4.023583 -4.023235 -4.023235 -4.023235 -3.439413 -3.442087 -3.446974 -3.448033 -3.448033 -3.448033 -2.932109 -2.938392 -2.946366 -2.947874 -2.947874 -2.947874 -2.497348 -2.504510 -2.513050 -2.514616 -2.514616 -2.514616 -2.123867 -2.130826 -2.138949 -2.140420 -2.140420 -2.140420 -1.803010 -1.809375 -1.816737 -1.818064 -1.818064 -1.818064 -1.527663 -1.533327 -1.539851 -1.541025 -1.541025 -1.541025 -1.291761 -1.296731 -1.302446 -1.303473 -1.303473 -1.303473 -1.090045 -1.094372 -1.099344 -1.100237 -1.100237 -1.100237 -0.917917 -0.921667 -0.925973 -0.926746 -0.926746 -0.926746 -0.771353 -0.774590 -0.778307 -0.778974 -0.778974 -0.778974 -0.646828 -0.649614 -0.652813 -0.653388 -0.653388 -0.653388 -0.541261 -0.543652 -0.546399 -0.546892 -0.546892 -0.546892 -0.451964 -0.454011 -0.456363 -0.456785 -0.456785 -0.456785 -0.376597 -0.378346 -0.380355 -0.380715 -0.380715 -0.380715 -0.313129 -0.314619 -0.316331 -0.316638 -0.316638 -0.316638 -0.259800 -0.261067 -0.262523 -0.262784 -0.262784 -0.262784 -0.215092 -0.216167 -0.217401 -0.217623 -0.217623 -0.217623 -0.177695 -0.178604 -0.179649 -0.179836 -0.179836 -0.179836 -0.146484 -0.147251 -0.148133 -0.148291 -0.148291 -0.148291 -0.120494 -0.121140 -0.121882 -0.122015 -0.122015 -0.122015 -0.098901 -0.099443 -0.100067 -0.100179 -0.100179 -0.100179 -0.081001 -0.081455 -0.081978 -0.082072 -0.082072 -0.082072 -0.066196 -0.066576 -0.067013 -0.067092 -0.067092 -0.067092 -0.053980 -0.054297 -0.054661 -0.054726 -0.054726 -0.054726 -0.043921 -0.044185 -0.044488 -0.044543 -0.044543 -0.044543 -0.035659 -0.035878 -0.036130 -0.036175 -0.036175 -0.036175 -0.028888 -0.029069 -0.029277 -0.029315 -0.029315 -0.029315 -0.023350 -0.023500 -0.023672 -0.023703 -0.023703 -0.023703 -0.018833 -0.018956 -0.019098 -0.019124 -0.019124 -0.019124 -0.015156 -0.015257 -0.015374 -0.015395 -0.015395 -0.015395 -0.012170 -0.012253 -0.012349 -0.012366 -0.012366 -0.012366 -0.009751 -0.009819 -0.009897 -0.009911 -0.009911 -0.009911 -0.007795 -0.007850 -0.007914 -0.007926 -0.007926 -0.007926 -0.006218 -0.006263 -0.006315 -0.006324 -0.006324 -0.006324 -0.004948 -0.004985 -0.005027 -0.005035 -0.005035 -0.005035 -0.003930 -0.003959 -0.003994 -0.004000 -0.004000 -0.004000 -0.003113 -0.003138 -0.003165 -0.003170 -0.003170 -0.003170 -0.002461 -0.002481 -0.002503 -0.002507 -0.002507 -0.002507 -0.001942 -0.001957 -0.001975 -0.001978 -0.001978 -0.001978 -0.001528 -0.001541 -0.001555 -0.001557 -0.001557 -0.001557 -0.001200 -0.001210 -0.001221 -0.001223 -0.001223 -0.001223 -0.000940 -0.000948 -0.000957 -0.000959 -0.000959 -0.000959 -0.000735 -0.000741 -0.000749 -0.000750 -0.000750 -0.000750 -0.000573 -0.000578 -0.000584 -0.000585 -0.000585 -0.000585 -0.000446 -0.000450 -0.000455 -0.000456 -0.000456 -0.000456 -0.000346 -0.000350 -0.000353 -0.000354 -0.000354 -0.000354 -0.000268 -0.000271 -0.000274 -0.000274 -0.000274 -0.000274 -0.000207 -0.000209 -0.000212 -0.000212 -0.000212 -0.000212 -0.000160 -0.000161 -0.000163 -0.000164 -0.000164 -0.000164 -0.000123 -0.000124 -0.000126 -0.000126 -0.000126 -0.000126 -0.000094 -0.000095 -0.000097 -0.000097 -0.000097 -0.000097 -0.000072 -0.000073 -0.000074 -0.000074 -0.000074 -0.000074 -0.000055 -0.000056 -0.000057 -0.000057 -0.000057 -0.000057 -0.000042 -0.000043 -0.000043 -0.000043 -0.000043 -0.000043 -0.000032 -0.000032 -0.000033 -0.000033 -0.000033 -0.000033 -0.000024 -0.000025 -0.000025 -0.000025 -0.000025 -0.000025 -0.000018 -0.000019 -0.000019 -0.000019 -0.000019 -0.000019 -0.000014 -0.000014 -0.000014 -0.000014 -0.000014 -0.000014 -0.000011 -0.000011 -0.000011 -0.000011 -0.000011 -0.000011 -0.000008 -0.000008 -0.000008 -0.000008 -0.000008 -0.000008 -0.000006 -0.000006 -0.000006 -0.000006 -0.000006 -0.000006 -0.000004 -0.000004 -0.000005 -0.000005 -0.000005 -0.000005 -0.000003 -0.000003 -0.000003 -0.000003 -0.000003 -0.000003 -0.000002 -0.000003 -0.000003 -0.000003 -0.000003 -0.000003 -0.000002 -0.000002 -0.000002 -0.000002 -0.000002 -0.000002 -0.000001 -0.000001 -0.000001 -0.000001 -0.000001 -0.000001 -0.000001 -0.000001 -0.000001 -0.000001 -0.000001 -0.000001 -0.000001 -0.000001 -0.000001 -0.000001 -0.000001 -0.000001 -0.000001 -0.000001 -0.000001 -0.000001 -0.000001 -0.000001 -0.000000 -0.000000 -0.000000 -0.000000 -0.000000 -0.000000 -0.000000 -0.000000 -0.000000 -0.000000 -0.000000 -0.000000 -0.000000 -0.000000 -0.000000 -0.000000 -0.000000 -0.000000 -0.000000 -0.000000 -0.000000 -0.000000 -0.000000 -0.000000 -0.000000 -0.000000 -0.000000 -0.000000 -0.000000 -0.000000 -0.000000 -0.000000 -0.000000 -0.000000 -0.000000 -0.000000 -0.000000 -0.000000 -0.000000 -0.000000 -0.000000 -0.000000 -0.000000 -0.000000 -0.000000 -0.000000 -0.000000 -0.000000 -0.000000 -0.000000 -0.000000 -0.000000 -0.000000 -0.000000 -0.000000 -0.000000 -0.000000 -0.000000 -0.000000 -0.000000 -0.000000 -0.000000 -0.000000 -0.000000 -0.000000 -0.000000 -0.000000 -0.000000 -0.000000 -0.000000 -0.000000 -0.000000 -0.000000 -0.000000 -0.000000 -0.000000 -0.000000 -0.000000 -0.000000 -0.000000 -0.000000 -0.000000 -0.000000 -0.000000 -0.000000 -0.000000 -0.000000 -0.000000 -0.000000 -0.000000 -0.000000 -0.000000 -0.000000 -0.000000 -0.000000 -0.000000 -0.000000 -0.000000 -0.000000 -0.000000 -0.000000 -0.000000 -0.000000 -0.000000 -0.000000 -0.000000 -0.000000 -0.000000 -0.000000 -0.000000 -0.000000 -0.000000 -0.000000 -0.000000 -0.000000 -0.000000 -0.000000 0.000000 0.000000 0.000000 -0.000000 -0.000000 -0.000000 0.000000 0.000000 0.000000 -0.000000 -0.000000 -0.000000 0.000000 0.000000 0.000000 -0.000000 -0.000000 -0.000000 0.000000 0.000000 0.000000 -0.000000 -0.000000 -0.000000 0.000000 0.000000 0.000000 -0.000000 -0.000000 -0.000000 0.000000 0.000000 0.000000 -0.000000 -0.000000 -0.000000 0.000000 0.000000 0.000000 -0.000000 -0.000000 -0.000000 0.000000 0.000000 0.000000 0.000000 -0.000000 -0.000000 0.000000 0.000000 0.000000 0.000000 -0.000000 0.000000 0.000000 0.000000 0.000000 0.000000 0.000000 0.000000 0.000000 0.000000 0.000000 0.000000 0.000000 0.000000 0.000000 0.000000 0.000000 0.000000 0.000000 0.000000 0.000000 0.000000 0.000000 0.000000 0.000000 0.000000 0.000000 0.000000 0.000000 0.000000 0.000000 0.000000 0.000000 0.000000 0.000000 0.000000 0.000000 0.000000 0.000000 0.000000 0.000000 0.000000 0.000000 0.000000 0.000000 0.000000 0.000000 0.000000 0.000000 0.000000 0.000000 0.000000 0.000000 0.000000 0.000000 0.000000 0.000000 0.000000 0.000000 0.000000 0.000000 0.000000 0.000000 0.000000 0.000000 0.000000 0.000000 0.000000 0.000000 0.000000 0.000000 0.000000 0.000000 0.000000 0.000000 0.000000 0.000000 0.000001 0.000001 0.000001 0.000001 0.000001 0.000001 0.000001 0.000001 0.000001 0.000001 0.000001 0.000001 0.000002 0.000002 0.000002 0.000002 0.000002 0.000002 0.000003 0.000003 0.000003 0.000003 0.000003 0.000003 0.000004 0.000004 0.000004 0.000004 0.000004 0.000004 0.000006 0.000006 0.000007 0.000007 0.000007 0.000007 0.000010 0.000010 0.000010 0.000010 0.000010 0.000010 0.000015 0.000015 0.000015 0.000015 0.000015 0.000015 0.000022 0.000022 0.000023 0.000023 0.000023 0.000023 0.000033 0.000033 0.000034 0.000034 0.000034 0.000034 0.000048 0.000049 0.000050 0.000051 0.000051 0.000051 0.000071 0.000072 0.000074 0.000074 0.000074 0.000074 0.000104 0.000106 0.000108 0.000109 0.000109 0.000109 0.000150 0.000153 0.000157 0.000157 0.000157 0.000157 0.000217 0.000221 0.000225 0.000226 0.000226 0.000226 0.000310 0.000315 0.000322 0.000323 0.000323 0.000323 0.000440 0.000448 0.000456 0.000458 0.000458 0.000458 0.000621 0.000631 0.000642 0.000644 0.000644 0.000644 0.000869 0.000882 0.000897 0.000900 0.000900 0.000900 0.001208 0.001225 0.001245 0.001249 0.001249 0.001249 0.001666 0.001689 0.001716 0.001720 0.001720 0.001720 0.002282 0.002312 0.002346 0.002352 0.002352 0.002352 0.003102 0.003140 0.003185 0.003193 0.003193 0.003193 0.004185 0.004234 0.004291 0.004301 0.004301 0.004301 0.005604 0.005666 0.005738 0.005750 0.005750 0.005750 0.007447 0.007525 0.007614 0.007631 0.007631 0.007631 0.009821 0.009917 0.010028 0.010048 0.010048 0.010048 0.012850 0.012968 0.013104 0.013128 0.013128 0.013128 0.016683 0.016826 0.016989 0.017019 0.017019 0.017019 0.021486 0.021656 0.021852 0.021887 0.021887 0.021887 0.027448 0.027649 0.027880 0.027921 0.027921 0.027921 0.034776 0.035010 0.035278 0.035326 0.035326 0.035326 0.043693 0.043961 0.044268 0.044323 0.044323 0.044323 0.054427 0.054730 0.055075 0.055137 0.055137 0.055137 0.067209 0.067543 0.067925 0.067993 0.067993 0.067993 0.082250 0.082611 0.083024 0.083098 0.083098 0.083098 0.099733 0.100114 0.100548 0.100626 0.100626 0.100626 0.119786 0.120175 0.120619 0.120698 0.120698 0.120698 0.142461 0.142842 0.143275 0.143353 0.143353 0.143353 0.167698 0.168050 0.168450 0.168521 0.168521 0.168521 0.195297 0.195594 0.195930 0.195990 0.195990 0.195990 0.224878 0.225089 0.225324 0.225365 0.225365 0.225365 0.255846 0.255932 0.256023 0.256039 0.256039 0.256039 0.287349 0.287266 0.287165 0.287146 0.287146 0.287146 0.318243 0.317945 0.317596 0.317533 0.317533 0.317533 0.347065 0.346500 0.345845 0.345727 0.345727 0.345727 0.372004 0.371119 0.370099 0.369916 0.369916 0.369916 0.390896 0.389640 0.388195 0.387935 0.387935 0.387935 0.401224 0.399548 0.397622 0.397276 0.397276 0.397276 0.400145 0.398005 0.395550 0.395110 0.395110 0.395110 0.384528 0.381892 0.378871 0.378329 0.378329 0.378329 0.351025 0.347875 0.344267 0.343620 0.343620 0.343620 0.296165 0.292499 0.288303 0.287551 0.287551 0.287551 0.216472 0.212309 0.207548 0.206696 0.206696 0.206696 0.108604 0.103988 0.098713 0.097768 0.097768 0.097768 -0.030482 -0.035480 -0.041190 -0.042212 -0.042212 -0.042212 -0.203350 -0.208633 -0.214664 -0.215744 -0.215744 -0.215744 -0.411901 -0.417342 -0.423551 -0.424662 -0.424662 -0.424662 -0.657181 -0.662629 -0.668841 -0.669952 -0.669952 -0.669952 -0.939208 -0.944485 -0.950500 -0.951575 -0.951575 -0.951575 -1.256808 -1.261720 -1.267315 -1.268315 -1.268315 -1.268315 -1.607493 -1.611833 -1.616771 -1.617653 -1.617653 -1.617653 -1.987376 -1.990931 -1.994971 -1.995692 -1.995692 -1.995692 -2.391139 -2.393701 -2.396606 -2.397124 -2.397124 -2.397124 -2.812065 -2.813440 -2.814989 -2.815264 -2.815264 -2.815264 -3.242132 -3.242150 -3.242151 -3.242149 -3.242149 -3.242149 -3.672179 -3.670705 -3.669005 -3.668699 -3.668699 -3.668699 -4.092140 -4.089084 -4.085579 -4.084950 -4.084950 -4.084950 -4.491340 -4.486663 -4.481310 -4.480350 -4.480350 -4.480350 -4.858846 -4.852566 -4.845387 -4.844101 -4.844101 -4.844101 -5.183850 -5.176049 -5.167137 -5.165542 -5.165542 -5.165542 -5.456091 -5.446915 -5.436435 -5.434559 -5.434559 -5.434559 -5.666267 -5.655924 -5.644114 -5.642000 -5.642000 -5.642000 -5.806432 -5.795194 -5.782360 -5.780063 -5.780063 -5.780063 -5.870355 -5.858560 -5.845081 -5.842667 -5.842667 -5.842667 -5.853799 -5.841865 -5.828200 -5.825751 -5.825751 -5.825751 -5.754693 -5.743167 -5.729900 -5.727515 -5.727515 -5.727515 -5.573128 -5.562811 -5.550767 -5.548585 -5.548585 -5.548585 -5.311063 -5.303327 -5.293855 -5.292096 -5.292096 -5.292096 -4.971463 -4.969019 -4.964691 -4.963764 -4.963764 -4.963764 -4.556268 -4.565052 -4.571262 -4.571998 -4.571998 -4.571998 -4.061569 -4.095734 -4.124189 -4.128288 -4.128288 -4.128288 -3.465227 -3.562720 -3.637816 -3.648207 -3.648207 -3.648207 -2.685116 -2.977891 -3.130830 -3.151122 -3.151122 -3.151122 17297.239030 17297.239030 17297.239030 17316.865892 17585.071384 19293.992974 20282.430651 19479.141073 18777.257705 17465.385750 17921.835044 16666.180367 16084.985081 19626.226019 17559.786792 17359.878432 16039.451550 14468.737011 14197.988026 11047.805670 7671.117140 2570.517338 1874.816100 -180.453073 2937.155087 3045.058588 747.042444 1297.927568 5108.374429 7360.917824 5693.085198 4927.333023 4342.714220 3909.489532 3644.321997 3626.061621 4290.771680 5204.856817 -356.076600 -3481.479008 -1161.026883 88.567457 922.015121 2102.045415 4171.319933 549.335296 -3825.534709 -2349.222977 -1247.330861 -795.934282 -581.675935 -473.076560 -411.511139 -370.911133 -339.627360 -312.508154 -287.315265 -263.111526 -239.544250 -216.528974 -194.108085 -172.384549 -151.487938 -131.554900 -112.716695 -95.090704 -78.774548 -63.842165 -50.341496 -38.293589 -27.692918 -18.508803 -10.687714 -4.156305 1.175061 5.408475 8.654560 11.028635 12.647123 13.624339 14.069738 14.085680 13.765743 13.193565 12.442182 11.573823 10.640084 9.682421 8.732875 7.814982 6.944773 6.131843 5.380411 4.690351 4.058164 3.477866 2.941775 2.441170 1.966786 1.509056 1.057869 0.601336 0.122203 -0.411259 -1.090995 -1.823310 -2.312823 -2.587130 -2.636394 -2.636394 -2.636394 17332.443760 17332.443760 17332.443760 17347.792091 17587.595617 18184.461475 17896.376595 17954.535321 18015.490801 16398.745523 15389.215385 14420.462303 14066.162240 15217.566428 14450.872524 13815.329902 13581.625813 13403.476384 12831.807106 11969.278921 10785.229666 9094.650445 8172.561132 7357.325043 7017.882893 6188.727381 5157.450189 4929.172789 5449.180140 5747.623646 5379.680993 4793.906178 4269.835124 3849.855927 3537.766055 3341.281291 3224.642107 2846.494386 1124.969210 -38.391212 139.304757 513.460784 864.464419 1242.774758 1514.017894 363.997602 -1054.172477 -1009.941130 -774.462830 -593.758137 -492.409603 -432.994396 -393.386815 -362.676336 -335.875595 -310.802904 -286.553053 -262.790773 -239.436752 -216.531076 -194.172697 -172.489923 -151.623353 -131.714165 -112.895285 -95.284560 -78.979645 -64.054416 -50.556813 -38.507993 -27.902672 -18.710524 -10.878478 -4.333713 1.012837 5.262682 8.525877 10.917210 12.552630 13.546046 14.006583 14.036356 13.728771 13.167371 12.425163 11.564403 10.636764 9.683807 8.737710 7.822159 6.953343 6.141015 5.389548 4.698963 4.065904 3.484523 2.947282 2.445647 1.970651 1.513295 1.064702 0.615826 0.156452 -0.326331 -0.837233 -1.344437 -1.783921 -2.066025 -2.117442 -2.117442 -2.117442 17339.426736 17339.426736 17339.426736 17321.832732 17119.902548 16600.708425 16065.998595 15620.435394 15183.108821 14585.381682 14046.628269 13594.686800 13293.918391 13109.839211 12809.910905 12411.732487 12020.444574 11642.242509 11261.468538 10871.737028 10458.420353 9990.833340 9533.872686 9061.799824 8536.827171 7888.593769 7201.161565 6634.613899 6192.183539 5743.565615 5222.369623 4688.266927 4206.509975 3796.779706 3445.446907 3123.444155 2781.861439 2329.752494 1734.297662 1216.938901 950.946274 858.204654 834.311440 806.133662 665.969518 317.019602 -84.373794 -312.307486 -395.090917 -415.359439 -410.676427 -395.880001 -376.542230 -355.013510 -332.383432 -309.217410 -285.848310 -262.500519 -239.348997 -216.549670 -194.254027 -172.613808 -151.779684 -131.896861 -113.099638 -95.506155 -79.213991 -64.296904 -50.802806 -38.752967 -28.142368 -18.941087 -11.096571 -4.536596 0.827256 5.095833 8.378542 10.789567 12.444316 13.456235 13.934072 13.979656 13.686202 13.137140 12.405442 11.553397 10.632756 9.685209 8.743084 7.830238 6.963039 6.151422 5.399936 4.708769 4.074723 3.492104 2.953535 2.450672 1.974840 1.517588 1.071181 0.629109 0.186725 -0.257411 -0.698709 -1.123618 -1.518701 -1.787464 -1.839888 -1.839888 -1.839888 17340.037574 17340.037574 17340.037574 17317.479210 17070.591738 16469.111412 15891.447463 15379.719431 14893.470762 14384.625758 13903.537953 13493.741752 13179.948817 12925.475897 12617.617106 12234.357271 11823.014006 11413.158315 11018.920238 10653.420609 10307.252173 9951.548198 9579.945563 9163.313321 8663.977878 8068.207135 7433.206748 6838.064302 6294.892762 5758.462405 5207.082599 4673.299661 4197.088248 3788.773998 3431.681047 3093.995040 2731.305895 2295.015156 1793.367508 1345.739883 1055.355684 907.259426 831.914988 753.817841 593.761995 314.004984 0.213996 -224.779328 -341.821700 -388.363523 -398.028384 -390.092763 -373.909107 -353.814567 -331.836895 -308.969473 -285.738579 -262.456098 -239.336759 -216.554605 -194.269335 -172.636337 -151.807837 -131.929646 -113.136258 -95.545842 -79.255952 -64.340320 -50.846850 -38.796831 -28.185290 -18.982379 -11.135634 -4.572941 0.794004 5.065929 8.352129 10.766678 12.424886 13.440117 13.921052 13.969468 13.678546 13.131695 12.401883 11.551400 10.632017 9.685441 8.744031 7.831671 6.964766 6.153279 5.401790 4.710521 4.076300 3.493460 2.954650 2.451562 1.975568 1.518302 1.072210 0.631164 0.191308 -0.247591 -0.680393 -1.095992 -1.485825 -1.751106 -1.802641 -1.802641 -1.802641 17340.037574 17340.037574 17340.037574 17317.479210 17070.591738 16469.111412 15891.447463 15379.719431 14893.470762 14384.625758 13903.537953 13493.741752 13179.948817 12925.475897 12617.617106 12234.357271 11823.014006 11413.158315 11018.920238 10653.420609 10307.252173 9951.548198 9579.945563 9163.313321 8663.977878 8068.207135 7433.206748 6838.064302 6294.892762 5758.462405 5207.082599 4673.299661 4197.088248 3788.773998 3431.681047 3093.995040 2731.305895 2295.015156 1793.367508 1345.739883 1055.355684 907.259426 831.914988 753.817841 593.761995 314.004984 0.213996 -224.779328 -341.821700 -388.363523 -398.028384 -390.092763 -373.909107 -353.814567 -331.836895 -308.969473 -285.738579 -262.456098 -239.336759 -216.554605 -194.269335 -172.636337 -151.807837 -131.929646 -113.136258 -95.545842 -79.255952 -64.340320 -50.846850 -38.796831 -28.185290 -18.982379 -11.135634 -4.572941 0.794004 5.065929 8.352129 10.766678 12.424886 13.440117 13.921052 13.969468 13.678546 13.131695 12.401883 11.551400 10.632017 9.685441 8.744031 7.831671 6.964766 6.153279 5.401790 4.710521 4.076300 3.493460 2.954650 2.451562 1.975568 1.518302 1.072210 0.631164 0.191308 -0.247591 -0.680393 -1.095992 -1.485825 -1.751106 -1.802641 -1.802641 -1.802641 17340.037574 17340.037574 17340.037574 17317.479210 17070.591738 16469.111412 15891.447463 15379.719431 14893.470762 14384.625758 13903.537953 13493.741752 13179.948817 12925.475897 12617.617106 12234.357271 11823.014006 11413.158315 11018.920238 10653.420609 10307.252173 9951.548198 9579.945563 9163.313321 8663.977878 8068.207135 7433.206748 6838.064302 6294.892762 5758.462405 5207.082599 4673.299661 4197.088248 3788.773998 3431.681047 3093.995040 2731.305895 2295.015156 1793.367508 1345.739883 1055.355684 907.259426 831.914988 753.817841 593.761995 314.004984 0.213996 -224.779328 -341.821700 -388.363523 -398.028384 -390.092763 -373.909107 -353.814567 -331.836895 -308.969473 -285.738579 -262.456098 -239.336759 -216.554605 -194.269335 -172.636337 -151.807837 -131.929646 -113.136258 -95.545842 -79.255952 -64.340320 -50.846850 -38.796831 -28.185290 -18.982379 -11.135634 -4.572941 0.794004 5.065929 8.352129 10.766678 12.424886 13.440117 13.921052 13.969468 13.678546 13.131695 12.401883 11.551400 10.632017 9.685441 8.744031 7.831671 6.964766 6.153279 5.401790 4.710521 4.076300 3.493460 2.954650 2.451562 1.975568 1.518302 1.072210 0.631164 0.191308 -0.247591 -0.680393 -1.095992 -1.485825 -1.751106 -1.802641 -1.802641 -1.802641 12980.542139 12980.542139 12980.542139 12992.837900 13029.966175 13210.126536 13935.920726 13525.761955 12703.463445 12972.952729 13170.104720 12142.400460 11135.371884 10347.444276 10316.561453 9354.126850 8227.341840 8117.621953 7600.920569 5881.230487 5434.707160 4744.911023 3715.443258 3534.577000 3221.657452 3019.986082 2805.926793 2457.081378 2148.429452 2007.289488 1641.272887 -333.442925 -1223.566130 -462.262588 93.380282 597.947587 1262.389008 699.507348 -1052.752474 -972.009593 -255.853791 462.865510 744.469204 -931.565251 -1643.443559 -717.606100 -125.357518 -1470.414765 -2552.833106 -2157.553711 -1857.228726 -1684.500030 -1573.616434 -1495.909385 -1436.721961 -1389.846548 13117.552753 13117.552753 13117.552753 13131.784424 12981.171948 13094.740581 12177.039941 15838.447069 12917.522375 13734.017413 14484.404849 13764.516383 16252.444833 15867.491212 14513.360271 15691.813273 17388.566680 14889.476126 16546.192073 15537.359116 14189.490120 17166.616364 15940.464925 14214.626812 14324.125648 15582.527978 16113.968058 15009.544497 13741.052870 14829.878953 14628.683565 14211.069815 14655.289772 14139.631303 13467.160879 15338.405222 12426.914346 16166.555949 14739.870682 14293.902012 14335.003749 13616.363587 16229.210963 13575.004641 14008.661985 15159.855006 15249.766317 14360.463012 13892.325875 14051.319438 13512.337238 14523.576739 14320.040425 3608.941040 -556.084203 -1631.474058 13320.666919 13320.666919 13320.666919 13328.194315 13170.046144 13984.855687 12034.573024 13246.599709 12160.945559 13378.685284 14815.670321 14189.538965 13858.004962 14613.659880 12386.549074 11812.306735 13934.719807 15178.580755 14416.429253 14499.232826 14394.785731 15061.144355 14172.425498 14940.047847 15019.026089 14866.272944 14040.604640 14774.142084 15001.149599 14157.806127 14825.604917 13436.638787 14373.436221 14809.555487 16743.278133 13747.110533 16370.162710 14679.091856 15118.394713 15227.699577 16319.578521 14931.111683 15682.276170 14063.572868 14625.400551 14584.553640 14870.392869 14998.712417 14332.467296 14550.697732 12281.849992 12360.132046 7179.528738 10477.095737 -446.545901 -26.375731 13480.477510 13480.477510 13480.477510 13540.864075 14094.576499 14956.678916 11152.643923 15060.427560 13593.144969 13846.220882 12690.214765 14066.463673 14252.732741 14934.328589 14276.691944 14752.473963 15326.366429 14726.690281 15125.634959 14590.169486 15131.145612 14479.558242 14446.128910 15762.175263 16608.502675 14945.903435 12386.494588 14065.378674 14155.054949 14745.267234 14167.134125 14941.249215 14270.657511 14286.814121 13271.461315 13104.079636 12889.138538 16673.378708 16777.327719 14110.746239 14858.616310 15851.668505 14440.488588 15556.883966 12961.663397 15529.407030 15147.466412 16194.371425 13168.719553 15048.725816