<VTKFile type="PolyData">
<PolyData>
<Piece NumberOfPoints="8632" NumberOfVerts="8632" NumberOfLines="0" NumberOfStrips="0" NumberOfPolys="0">
<PointData>
<DataArray type="Float64" Name="Pressure" format="ascii">
 12785.673418 12785.673418 12785.673418 12781.637245 12733.998153 12598.956226 12414.939419 12168.295215 11861.146119 11500.264759 11085.013394 10615.013141 10096.824354 9539.069701 8956.721161 8367.905539 7782.287566 7199.216675 6617.470391 6043.156387 5483.933465 4943.674110 4427.864113 3942.532624 3489.217349 3067.195816 2671.077428 2290.386411 1914.381702 1533.105843 1144.295160 782.101492 516.111033 370.260692 305.496616 266.134200 197.179231 64.023201 -90.940480 -187.981216 -228.445493 -270.402365 -374.696134 -547.807256 -714.377996 -842.067359 -982.259232 -1168.396174 -1343.237021 -1446.942534 -1485.859705 -1486.276620 -1465.266962 -1432.003758 -1391.134446 -1344.831391 -1294.207637 -1240.536722 -1185.321242 -1129.671752 -1074.259034 -1019.508856 -965.713892 -913.088604 -861.795761 -811.960848 -763.681035 -717.031329 -672.068970 -628.836587 -587.364431 -547.671940 -509.768838 -473.655931 -439.325735 -406.763014 -375.945306 -346.843458 -319.422186 -293.640669 -269.453171 -246.809664 -225.656469 -205.936878 -187.591756 -170.560118 -154.779675 -140.187331 -126.719650 -114.313269 -102.905277 -92.433546 -82.837020 -74.055965 -66.032178 -58.709167 -52.032299 -45.948930 -40.408552 -35.363012 -30.766982 -26.579080 -22.764609 -19.301807 -16.193009 -13.465371 -11.099897 -9.575288 -9.287236 -9.287236 -9.287236 12785.673418 12785.673418 12785.673418 12781.637245 12733.998153 12598.956226 12414.939419 12168.295215 11861.146119 11500.264759 11085.013394 10615.013141 10096.824354 9539.069701 8956.721161 8367.905539 7782.287566 7199.216675 6617.470391 6043.156387 5483.933465 4943.674110 4427.864113 3942.532624 3489.217349 3067.195816 2671.077428 2290.386411 1914.381702 1533.105843 1144.295160 782.101492 516.111033 370.260692 305.496616 266.134200 197.179231 64.023201 -90.940480 -187.981216 -228.445493 -270.402365 -374.696134 -547.807256 -714.377996 -842.067359 -982.259232 -1168.396174 -1343.237021 -1446.942534 -1485.859705 -1486.276620 -1465.266962 -1432.003758 -1391.134446 -1344.831391 -1294.207637 -1240.536722 -1185.321242 -1129.671752 -1074.259034 -1019.508856 -965.713892 -913.088604 -861.795761 -811.960848 -763.681035 -717.031329 -672.068970 -628.836587 -587.364431 -547.671940 -509.768838 -473.655931 -439.325735 -406.763014 -375.945306 -346.843458 -319.422186 -293.640669 -269.453171 -246.809664 -225.656469 -205.936878 -187.591756 -170.560118 -154.779675 -140.187331 -126.719650 -114.313269 -102.905277 -92.433546 -82.837020 -74.055965 -66.032178 -58.709167 -52.032299 -45.948930 -40.408552 -35.363012 -30.766982 -26.579080 -22.764609 -19.301807 -16.193009 -13.465371 -11.099897 -9.575288 -9.287236 -9.287236 -9.287236 12785.673418 12785.673418 12785.673418 12781.637245 12733.998153 12598.956226 12414.939419 12168.295215 11861.146119 11500.264759 11085.013394 10615.013141 10096.824354 9539.069701 8956.721161 8367.905539 7782.287566 7199.216675 6617.470391 6043.156387 5483.933465 4943.674110 4427.864113 3942.532624 3489.217349 3067.195816 2671.077428 2290.386411 1914.381702 1533.105843 1144.295160 782.101492 516.111033 370.260692 305.496616 266.134200 197.179231 64.023201 -90.940480 -187.981216 -228.445493 -270.402365 -374.696134 -547.807256 -714.377996 -842.067359 -982.259232 -1168.396174 -1343.237021 -1446.942534 -1485.859705 -1486.276620 -1465.266962 -1432.003758 -1391.134446 -1344.831391 -1294.207637 -1240.536722 -1185.321242 -1129.671752 -1074.259034 -1019.508856 -965.713892 -913.088604 -861.795761 -811.960848 -763.681035 -717.031329 -672.068970 -628.836587 -587.364431 -547.671940 -509.768838 -473.655931 -439.325735 -406.763014 -375.945306 -346.843458 -319.422186 -293.640669 -269.453171 -246.809664 -225.656469 -205.936878 -187.591756 -170.560118 -154.779675 -140.187331 -126.719650 -114.313269 -102.905277 -92.433546 -82.837020 -74.055965 -66.032178 -58.709167 -52.032299 -45.948930 -40.408552 -35.363012 -30.766982 -26.579080 -22.764609 -19.301807 -16.193009 -13.465371 -11.099897 -9.575288 -9.287236 -9.287236 -9.287236 12796.036645 12796.036645 12796.036645 12792.410358 12749.220361 12622.835410 12441.588957 12195.565009 11887.880142 11529.465701 11116.541685 10648.075243 10133.340553 9574.210180 8986.281567 8395.823191 7813.013284 7231.467013 6647.905670 6072.293057 5511.678340 4966.057196 4442.325154 3949.937756 3489.357341 3064.063641 2670.109603 2293.585609 1921.906901 1541.991597 1140.967697 751.937560 476.506690 344.908787 299.342278 278.365106 220.830620 74.607039 -118.063208 -207.693733 -228.247358 -249.754900 -351.060445 -566.421265 -730.794053 -840.005245 -972.371533 -1202.036729 -1373.641432 -1470.086884 -1499.484126 -1493.699825 -1469.292877 -1434.323961 -1392.703518 -1346.092007 -1295.105156 -1241.017204 -1185.527902 -1129.750472 -1074.282106 -1019.507733 -965.701742 -913.071001 -861.775168 -811.938433 -763.657416 -717.006877 -672.043937 -628.811163 -587.338773 -547.646187 -509.743114 -473.630352 -439.300408 -406.738039 -375.920776 -346.819458 -319.398791 -293.617947 -269.431180 -246.788454 -225.636081 -205.917343 -187.573099 -170.542356 -154.762818 -140.171382 -126.704606 -114.299122 -102.892016 -92.421154 -82.825477 -74.045247 -66.022259 -58.700014 -52.023869 -45.941157 -40.401308 -35.356021 -30.759592 -26.569707 -22.749520 -19.273279 -16.143486 -13.401270 -11.046606 -9.532472 -9.246633 -9.246633 -9.246633 12910.608751 12910.608751 12910.608751 12913.937670 12936.295173 12903.353990 12748.141381 12506.227520 12190.162509 11863.454455 11475.799547 11025.670786 10586.489350 10025.770980 9355.491663 8756.667933 8236.810942 7673.294590 7050.675219 6462.170589 5894.709705 5276.187337 4651.554492 4073.123621 3504.760154 3021.474219 2653.677206 2328.835850 2014.611299 1680.662675 1173.744546 296.865555 -77.356651 43.346815 230.566831 424.029998 620.498551 248.685455 -527.660976 -489.232261 -226.063568 37.429207 5.413577 -836.364762 -1086.309059 -802.827745 -815.388506 -1609.722115 -1927.792503 -1743.899138 -1650.945949 -1574.345573 -1512.837067 -1459.457745 -1410.090457 -1361.540589 -1306.341176 -1246.028044 -1187.596507 -1130.519333 -1074.503116 -1019.492236 -965.578435 -912.894207 -861.568900 -811.714146 -763.421183 -716.762354 -671.793621 -628.556954 -587.082240 -547.388704 -509.485927 -473.374615 -439.047196 -406.488353 -375.675540 -346.579516 -319.164905 -293.390791 -269.211336 -246.576418 -225.432261 -205.722062 -187.386598 -170.364803 -154.594308 -140.011949 -126.554225 -114.157716 -102.759462 -92.297288 -82.710100 -73.938126 -65.923122 -58.608539 -51.939630 -45.863494 -40.328986 -35.286352 -30.686207 -26.476967 -22.599012 -18.976463 -15.531049 -12.561401 -10.388962 -9.041249 -8.800645 -8.800645 -8.800645 13075.412631 13075.412631 13075.412631 13086.538477 13265.527842 13561.628161 13472.562450 13441.418540 12917.346438 12622.138523 12169.574867 11497.646172 11450.210241 10987.904691 9882.505077 9332.503860 9189.024177 8615.476575 7685.745171 7284.580396 6761.424196 5929.410521 5073.786196 4522.602357 3611.226159 2899.649083 2629.454726 2371.533581 2136.891967 2001.836431 1502.651732 -431.136336 -1063.743253 -360.449979 147.242925 629.700193 1243.154681 551.760165 -1073.419093 -892.277013 -223.116308 475.357434 656.344119 -1036.487772 -1593.670558 -709.723625 -243.649547 -1626.966028 -2542.104290 -2115.727532 -1832.951712 -1669.500631 -1563.912529 -1488.962831 -1431.265347 -1384.574092 -1328.076843 -1254.891283 -1190.829552 -1131.715041 -1074.877555 -1019.522684 -965.456900 -912.700281 -861.336934 -811.459946 -763.152752 -716.484271 -671.508883 -628.267777 -586.790428 -547.095821 -509.193393 -473.083740 -438.759202 -406.204379 -375.396638 -346.306647 -318.898934 -293.132483 -268.961356 -246.335329 -225.200524 -205.500043 -187.174573 -170.162959 -154.402756 -139.830724 -126.383297 -113.996998 -102.608812 -92.156520 -82.578984 -73.816392 -65.810455 -58.504549 -51.843782 -45.774906 -40.245916 -35.204882 -30.596854 -26.355896 -22.384195 -18.496117 -14.213902 -11.014485 -9.358594 -8.360353 -8.177243 -8.177243 -8.177243 -10.385454 -8.952019 -8.192891 -8.089993 -8.089993 -8.089993 -8.890100 -8.072968 -7.559544 -7.489133 -7.489133 -7.489133 -7.097593 -6.818966 -6.589635 -6.557304 -6.557304 -6.557304 -5.899378 -5.795826 -5.706463 -5.693255 -5.693255 -5.693255 -4.986159 -4.951060 -4.921864 -4.917720 -4.917720 -4.917720 -4.245219 -4.237393 -4.232914 -4.232558 -4.232558 -4.232558 -3.623726 -3.626508 -3.631577 -3.632674 -3.632674 -3.632674 -3.093981 -3.100495 -3.108758 -3.110320 -3.110320 -3.110320 -2.639275 -2.646704 -2.655561 -2.657184 -2.657184 -2.657184 -2.248056 -2.255282 -2.263714 -2.265242 -2.265242 -2.265242 -1.911439 -1.918057 -1.925710 -1.927090 -1.927090 -1.927090 -1.622117 -1.628014 -1.634806 -1.636027 -1.636027 -1.636027 -1.373851 -1.379034 -1.384992 -1.386062 -1.386062 -1.386062 -1.161223 -1.165742 -1.170934 -1.171866 -1.171866 -1.171866 -0.979489 -0.983411 -0.987915 -0.988723 -0.988723 -0.988723 -0.824490 -0.827881 -0.831775 -0.832474 -0.832474 -0.832474 -0.692578 -0.695501 -0.698858 -0.699461 -0.699461 -0.699461 -0.580558 -0.583071 -0.585958 -0.586476 -0.586476 -0.586476 -0.485638 -0.487794 -0.490270 -0.490715 -0.490715 -0.490715 -0.405385 -0.407230 -0.409348 -0.409729 -0.409729 -0.409729 -0.337682 -0.339256 -0.341065 -0.341390 -0.341390 -0.341390 -0.280692 -0.282033 -0.283573 -0.283850 -0.283850 -0.283850 -0.232826 -0.233965 -0.235274 -0.235509 -0.235509 -0.235509 -0.192713 -0.193679 -0.194788 -0.194987 -0.194987 -0.194987 -0.159172 -0.159988 -0.160926 -0.161095 -0.161095 -0.161095 -0.131188 -0.131876 -0.132668 -0.132810 -0.132810 -0.132810 -0.107892 -0.108472 -0.109138 -0.109258 -0.109258 -0.109258 -0.088543 -0.089030 -0.089589 -0.089690 -0.089690 -0.089690 -0.072508 -0.072916 -0.073385 -0.073469 -0.073469 -0.073469 -0.059249 -0.059590 -0.059982 -0.060052 -0.060052 -0.060052 -0.048310 -0.048594 -0.048921 -0.048980 -0.048980 -0.048980 -0.039306 -0.039542 -0.039814 -0.039862 -0.039862 -0.039862 -0.031910 -0.032106 -0.032332 -0.032372 -0.032372 -0.032372 -0.025850 -0.026012 -0.026199 -0.026232 -0.026232 -0.026232 -0.020895 -0.021029 -0.021183 -0.021211 -0.021211 -0.021211 -0.016853 -0.016964 -0.017091 -0.017113 -0.017113 -0.017113 -0.013563 -0.013654 -0.013759 -0.013777 -0.013777 -0.013777 -0.010892 -0.010966 -0.011052 -0.011067 -0.011067 -0.011067 -0.008728 -0.008788 -0.008858 -0.008871 -0.008871 -0.008871 -0.006978 -0.007027 -0.007085 -0.007095 -0.007095 -0.007095 -0.005567 -0.005607 -0.005654 -0.005662 -0.005662 -0.005662 -0.004431 -0.004464 -0.004502 -0.004508 -0.004508 -0.004508 -0.003519 -0.003546 -0.003577 -0.003582 -0.003582 -0.003582 -0.002789 -0.002811 -0.002835 -0.002840 -0.002840 -0.002840 -0.002205 -0.002223 -0.002243 -0.002246 -0.002246 -0.002246 -0.001740 -0.001754 -0.001770 -0.001773 -0.001773 -0.001773 -0.001370 -0.001381 -0.001394 -0.001396 -0.001396 -0.001396 -0.001076 -0.001085 -0.001095 -0.001097 -0.001097 -0.001097 -0.000843 -0.000850 -0.000859 -0.000860 -0.000860 -0.000860 -0.000659 -0.000665 -0.000672 -0.000673 -0.000673 -0.000673 -0.000515 -0.000519 -0.000524 -0.000525 -0.000525 -0.000525 -0.000401 -0.000404 -0.000408 -0.000409 -0.000409 -0.000409 -0.000311 -0.000314 -0.000317 -0.000318 -0.000318 -0.000318 -0.000241 -0.000243 -0.000246 -0.000246 -0.000246 -0.000246 -0.000187 -0.000188 -0.000190 -0.000191 -0.000191 -0.000191 -0.000144 -0.000145 -0.000147 -0.000147 -0.000147 -0.000147 -0.000111 -0.000112 -0.000113 -0.000113 -0.000113 -0.000113 -0.000085 -0.000086 -0.000087 -0.000087 -0.000087 -0.000087 -0.000065 -0.000066 -0.000067 -0.000067 -0.000067 -0.000067 -0.000050 -0.000050 -0.000051 -0.000051 -0.000051 -0.000051 -0.000038 -0.000038 -0.000039 -0.000039 -0.000039 -0.000039 -0.000029 -0.000029 -0.000030 -0.000030 -0.000030 -0.000030 -0.000022 -0.000022 -0.000023 -0.000023 -0.000023 -0.000023 -0.000017 -0.000017 -0.000017 -0.000017 -0.000017 -0.000017 -0.000013 -0.000013 -0.000013 -0.000013 -0.000013 -0.000013 -0.000010 -0.000010 -0.000010 -0.000010 -0.000010 -0.000010 -0.000007 -0.000007 -0.000007 -0.000007 -0.000007 -0.000007 -0.000005 -0.000005 -0.000006 -0.000006 -0.000006 -0.000006 -0.000004 -0.000004 -0.000004 -0.000004 -0.000004 -0.000004 -0.000003 -0.000003 -0.000003 -0.000003 -0.000003 -0.000003 -0.000002 -0.000002 -0.000002 -0.000002 -0.000002 -0.000002 -0.000002 -0.000002 -0.000002 -0.000002 -0.000002 -0.000002 -0.000001 -0.000001 -0.000001 -0.000001 -0.000001 -0.000001 -0.000001 -0.000001 -0.000001 -0.000001 -0.000001 -0.000001 -0.000001 -0.000001 -0.000001 -0.000001 -0.000001 -0.000001 -0.000000 -0.000001 -0.000001 -0.000001 -0.000001 -0.000001 -0.000000 -0.000000 -0.000000 -0.000000 -0.000000 -0.000000 -0.000000 -0.000000 -0.000000 -0.000000 -0.000000 -0.000000 -0.000000 -0.000000 -0.000000 -0.000000 -0.000000 -0.000000 -0.000000 -0.000000 -0.000000 -0.000000 -0.000000 -0.000000 -0.000000 -0.000000 -0.000000 -0.000000 -0.000000 -0.000000 -0.000000 -0.000000 -0.000000 -0.000000 -0.000000 -0.000000 -0.000000 -0.000000 -0.000000 -0.000000 -0.000000 -0.000000 -0.000000 -0.000000 -0.000000 -0.000000 -0.000000 -0.000000 -0.000000 -0.000000 -0.000000 -0.000000 -0.000000 -0.000000 -0.000000 -0.000000 -0.000000 -0.000000 -0.000000 -0.000000 -0.000000 -0.000000 -0.000000 -0.000000 -0.000000 -0.000000 -0.000000 -0.000000 -0.000000 -0.000000 -0.000000 -0.000000 -0.000000 -0.000000 -0.000000 -0.000000 -0.000000 -0.000000 -0.000000 -0.000000 -0.000000 -0.000000 -0.000000 -0.000000 -0.000000 -0.000000 -0.000000 -0.000000 -0.000000 -0.000000 -0.000000 -0.000000 -0.000000 -0.000000 -0.000000 -0.000000 -0.000000 -0.000000 -0.000000 -0.000000 -0.000000 -0.000000 -0.000000 -0.000000 -0.000000 -0.000000 -0.000000 -0.000000 -0.000000 -0.000000 -0.000000 0.000000 0.000000 0.000000 -0.000000 -0.000000 -0.000000 0.000000 0.000000 0.000000 -0.000000 -0.000000 -0.000000 0.000000 0.000000 0.000000 -0.000000 -0.000000 -0.000000 0.000000 0.000000 0.000000 -0.000000 -0.000000 -0.000000 0.000000 0.000000 0.000000 -0.000000 -0.000000 -0.000000 0.000000 0.000000 0.000000 -0.000000 -0.000000 -0.000000 0.000000 0.000000 0.000000 0.000000 -0.000000 -0.000000 0.000000 0.000000 0.000000 0.000000 0.000000 0.000000 0.000000 0.000000 0.000000 0.000000 0.000000 0.000000 0.000000 0.000000 0.000000 0.000000 0.000000 0.000000 0.000000 0.000000 0.000000 0.000000 0.000000 0.000000 0.000000 0.000000 0.000000 0.000000 0.000000 0.000000 0.000000 0.000000 0.000000 0.000000 0.000000 0.000000 0.000000 0.000000 0.000000 0.000000 0.000000 0.000000 0.000000 0.000000 0.000000 0.000000 0.000000 0.000000 0.000000 0.000000 0.000000 0.000000 0.000000 0.000000 0.000000 0.000000 0.000000 0.000000 0.000000 0.000000 0.000000 0.000000 0.000000 0.000000 0.000000 0.000000 0.000000 0.000000 0.000000 0.000000 0.000000 0.000000 0.000000 0.000000 0.000000 0.000000 0.000000 0.000000 0.000000 0.000000 0.000000 0.000001 0.000001 0.000001 0.000001 0.000001 0.000001 0.000001 0.000001 0.000001 0.000001 0.000001 0.000001 0.000002 0.000002 0.000002 0.000002 0.000002 0.000002 0.000003 0.000003 0.000003 0.000003 0.000003 0.000003 0.000004 0.000004 0.000004 0.000004 0.000004 0.000004 0.000006 0.000006 0.000007 0.000007 0.000007 0.000007 0.000009 0.000010 0.000010 0.000010 0.000010 0.000010 0.000014 0.000014 0.000015 0.000015 0.000015 0.000015 0.000021 0.000021 0.000022 0.000022 0.000022 0.000022 0.000031 0.000032 0.000033 0.000033 0.000033 0.000033 0.000046 0.000047 0.000048 0.000048 0.000048 0.000048 0.000067 0.000068 0.000070 0.000070 0.000070 0.000070 0.000098 0.000099 0.000102 0.000102 0.000102 0.000102 0.000141 0.000143 0.000146 0.000147 0.000147 0.000147 0.000202 0.000205 0.000210 0.000210 0.000210 0.000210 0.000287 0.000292 0.000298 0.000299 0.000299 0.000299 0.000406 0.000413 0.000420 0.000422 0.000422 0.000422 0.000570 0.000579 0.000589 0.000591 0.000591 0.000591 0.000795 0.000806 0.000820 0.000822 0.000822 0.000822 0.001100 0.001115 0.001133 0.001137 0.001137 0.001137 0.001512 0.001532 0.001556 0.001560 0.001560 0.001560 0.002063 0.002089 0.002120 0.002125 0.002125 0.002125 0.002795 0.002829 0.002868 0.002875 0.002875 0.002875 0.003759 0.003802 0.003852 0.003861 0.003861 0.003861 0.005018 0.005073 0.005136 0.005147 0.005147 0.005147 0.006651 0.006719 0.006797 0.006812 0.006812 0.006812 0.008749 0.008833 0.008930 0.008947 0.008947 0.008947 0.011422 0.011525 0.011644 0.011665 0.011665 0.011665 0.014798 0.014923 0.015066 0.015092 0.015092 0.015092 0.019024 0.019173 0.019345 0.019375 0.019375 0.019375 0.024265 0.024442 0.024644 0.024680 0.024680 0.024680 0.030705 0.030910 0.031146 0.031188 0.031188 0.031188 0.038538 0.038774 0.039044 0.039093 0.039093 0.039093 0.047971 0.048238 0.048543 0.048597 0.048597 0.048597 0.059210 0.059505 0.059844 0.059904 0.059904 0.059904 0.072449 0.072771 0.073139 0.073204 0.073204 0.073204 0.087864 0.088205 0.088595 0.088665 0.088665 0.088665 0.105584 0.105936 0.106338 0.106409 0.106409 0.106409 0.125679 0.126029 0.126427 0.126498 0.126498 0.126498 0.148129 0.148460 0.148835 0.148902 0.148902 0.148902 0.172799 0.173089 0.173417 0.173475 0.173475 0.173475 0.199407 0.199628 0.199878 0.199922 0.199922 0.199922 0.227485 0.227608 0.227742 0.227766 0.227766 0.227766 0.256355 0.256341 0.256319 0.256314 0.256314 0.256314 0.285087 0.284895 0.284669 0.284628 0.284628 0.284628 0.312472 0.312058 0.311577 0.311490 0.311490 0.311490 0.337003 0.336320 0.335530 0.335388 0.335388 0.335388 0.356852 0.355852 0.354699 0.354492 0.354492 0.354492 0.369872 0.368509 0.366942 0.366660 0.366660 0.366660 0.373609 0.371841 0.369811 0.369447 0.369447 0.369447 0.365325 0.363118 0.360587 0.360133 0.360133 0.360133 0.342055 0.339384 0.336324 0.335775 0.335775 0.335775 0.300669 0.297525 0.293924 0.293279 0.293279 0.293279 0.237973 0.234360 0.230227 0.229487 0.229487 0.229487 0.150814 0.146760 0.142125 0.141294 0.141294 0.141294 0.036224 0.031776 0.026695 0.025785 0.025785 0.025785 -0.108438 -0.113205 -0.118650 -0.119625 -0.119625 -0.119625 -0.285315 -0.290305 -0.296001 -0.297020 -0.297020 -0.297020 -0.495890 -0.500979 -0.506786 -0.507825 -0.507825 -0.507825 -0.740816 -0.745860 -0.751612 -0.752641 -0.752641 -0.752641 -1.019765 -1.024599 -1.030108 -1.031093 -1.031093 -1.031093 -1.331295 -1.335738 -1.340797 -1.341701 -1.341701 -1.341701 -1.672744 -1.676605 -1.680999 -1.681784 -1.681784 -1.681784 -2.040171 -2.043260 -2.046770 -2.047396 -2.047396 -2.047396 -2.428344 -2.430474 -2.432888 -2.433318 -2.433318 -2.433318 -2.830776 -2.831777 -2.832900 -2.833099 -2.833099 -2.833099 -3.239835 -3.239558 -3.239224 -3.239162 -3.239162 -3.239162 -3.646894 -3.645226 -3.643304 -3.642959 -3.642959 -3.642959 -4.042564 -4.039430 -4.035838 -4.035194 -4.035194 -4.035194 -4.416960 -4.412336 -4.407044 -4.406095 -4.406095 -4.406095 -4.760027 -4.753938 -4.746977 -4.745730 -4.745730 -4.745730 -5.061887 -5.054417 -5.045881 -5.044353 -5.044353 -5.044353 -5.313215 -5.304502 -5.294551 -5.292770 -5.292770 -5.292770 -5.505607 -5.495847 -5.484703 -5.482708 -5.482708 -5.482708 -5.631930 -5.621376 -5.609323 -5.607165 -5.607165 -5.607165 -5.686635 -5.675599 -5.662984 -5.660725 -5.660725 -5.660725 -5.665999 -5.654865 -5.642112 -5.639826 -5.639826 -5.639826 -5.568259 -5.557534 -5.545183 -5.542962 -5.542962 -5.542962 -5.393593 -5.384030 -5.372851 -5.370825 -5.370825 -5.370825 -5.143815 -5.136722 -5.127999 -5.126375 -5.126375 -5.126375 -4.821540 -4.819527 -4.815733 -4.814905 -4.814905 -4.814905 -4.428199 -4.437024 -4.443385 -4.444158 -4.444158 -4.444158 -3.959357 -3.992789 -4.020695 -4.024722 -4.024722 -4.024722 -3.392655 -3.487652 -3.560892 -3.571034 -3.571034 -3.571034 -2.647022 -2.932179 -3.081393 -3.101198 -3.101198 -3.101198 17549.470911 17549.470911 17549.470911 17564.919791 17461.470732 17868.158797 16697.032492 14378.691817 12462.525126 12688.514696 13327.756825 12547.260297 11948.581177 12123.173689 11984.600676 13270.832401 13694.890509 11380.410795 9922.212284 11728.191651 10257.267865 10489.515548 12618.367519 10097.805476 9175.083865 8576.524025 6492.900347 5851.293802 5858.066787 6705.328598 5859.920333 5036.789631 4472.271244 4062.465467 3830.266265 3906.698608 5084.887134 3926.242137 -2707.884271 -2690.850861 -504.652934 440.803029 1242.092200 2746.632849 3846.201984 -1420.538315 -3588.989824 -1817.691786 -1068.234513 -721.682972 -550.442650 -459.367236 -405.164271 -367.828597 -338.144150 -311.925198 -287.323166 -263.569068 -240.389679 -217.738594 -195.672981 -174.296516 -153.731607 -134.104325 -115.534918 -98.131113 -81.983164 -67.160315 -53.708563 -41.649614 -30.980968 -21.676979 -13.690763 -6.956780 -1.393909 3.091170 6.600458 9.241156 11.122362 12.352072 13.034555 13.268185 13.143744 12.743202 12.138949 11.393456 10.559296 9.679468 8.787982 7.910607 7.065757 6.265444 5.516250 4.820301 4.176183 3.579807 3.025176 2.505040 2.011405 1.535778 1.068971 0.599936 0.112325 -0.424254 -1.098475 -1.817487 -2.297179 -2.566239 -2.614541 -2.614541 -2.614541 17448.585839 17448.585839 17448.585839 17502.452803 17920.247745 18605.642788 16691.198345 13873.758934 12798.029634 13192.402228 13774.329688 13641.790384 13180.087862 12699.765269 12221.173778 12362.763338 11975.801494 10889.290150 10098.468264 10077.980493 9439.302675 9284.680850 9250.079245 8590.103020 8155.364983 7609.025989 6731.429430 6216.224662 6104.200583 5907.430158 5456.335411 4904.952921 4404.903028 3990.926579 3675.085880 3480.956565 3272.716575 2421.962831 509.846186 49.043396 318.972191 676.777433 1010.895428 1344.628982 1336.903004 -230.401914 -1123.377507 -947.927306 -711.584780 -563.758296 -479.041843 -426.933028 -390.432250 -361.141710 -335.112579 -310.558402 -286.720688 -263.324049 -240.318282 -217.757659 -195.744701 -174.403340 -153.864810 -134.258806 -115.706880 -98.317072 -82.179596 -67.363588 -53.914994 -41.855583 -31.183038 -21.872007 -13.875995 -7.129923 -1.553170 2.947062 6.472257 9.129128 11.026333 12.271477 12.968512 13.215562 13.103230 12.713373 12.118335 11.380589 10.552759 9.677931 8.790226 7.915547 7.072448 6.273087 5.524191 4.828025 4.183314 3.586100 3.030529 2.509536 2.015411 1.540213 1.075940 0.614273 0.145635 -0.342254 -0.853738 -1.357905 -1.793449 -2.072884 -2.123775 -2.123775 -2.123775 17322.519364 17322.519364 17322.519364 17328.324583 17362.740321 17245.196999 16635.780021 15862.724302 15318.654179 14925.442931 14529.280295 14099.452197 13672.879593 13264.825575 12858.946461 12446.634519 11938.229019 11327.751880 10737.027272 10217.349960 9709.587183 9246.230080 8828.373352 8406.377263 7980.068484 7494.200673 6966.776086 6501.050632 6106.822945 5712.595031 5269.828437 4801.056326 4346.081298 3927.122427 3545.169810 3178.058362 2765.287880 2217.735161 1591.148761 1150.325947 948.960164 879.759305 854.439936 795.749135 587.461583 188.034013 -174.789180 -352.098251 -410.664987 -421.639471 -413.349106 -396.870111 -376.740962 -354.920559 -332.291405 -309.288245 -286.164833 -263.104522 -240.264381 -217.792203 -195.832585 -174.528186 -154.018325 -134.435934 -115.903640 -98.529659 -82.404070 -67.595847 -54.150861 -42.090941 -31.413970 -22.094931 -14.087769 -7.327926 -1.735354 2.782152 6.325491 9.000819 10.916285 12.179057 12.892718 13.155109 13.056627 12.679000 12.094513 11.365647 10.545078 9.675992 8.792637 7.921065 7.079992 6.281742 5.533206 4.836810 4.191431 3.593261 3.036603 2.514581 2.019768 1.544752 1.082631 0.627519 0.175188 -0.275631 -0.720511 -1.146521 -1.541184 -1.809012 -1.861125 -1.861125 -1.861125 17301.015221 17301.015221 17301.015221 17299.266536 17259.573450 17043.898289 16599.376227 16026.464709 15486.463678 15018.448748 14571.201199 14127.615051 13710.063463 13313.354149 12909.582382 12474.779567 11972.967672 11411.139700 10845.463552 10306.897290 9786.879495 9299.689474 8849.892343 8417.329396 7976.955372 7499.534659 7002.211834 6537.069817 6113.288858 5692.696602 5247.389225 4786.642653 4337.278283 3917.460845 3526.162129 3140.142146 2714.950452 2214.960806 1691.077919 1278.761802 1033.160133 910.039232 835.869534 733.607467 529.880149 219.675162 -80.245328 -273.596358 -366.547350 -399.880019 -403.147804 -392.178920 -374.600784 -353.947396 -331.850020 -309.089739 -286.078451 -263.071207 -240.257474 -217.799654 -195.848910 -174.550818 -154.045945 -134.467712 -115.938898 -98.567734 -82.444267 -67.637435 -54.193094 -42.133085 -31.455325 -22.134855 -14.125702 -7.363398 -1.767997 2.752598 6.299183 8.977812 10.896547 12.162474 12.879113 13.144251 13.048250 12.672815 12.090220 11.362946 10.543680 9.675625 8.793053 7.922040 7.081333 6.283283 5.534814 4.838379 4.192881 3.594541 3.037687 2.515475 2.020527 1.545512 1.083702 0.629581 0.179676 -0.266127 -0.702894 -1.120083 -1.509927 -1.774536 -1.825860 -1.825860 -1.825860 17301.015221 17301.015221 17301.015221 17299.266536 17259.573450 17043.898289 16599.376227 16026.464709 15486.463678 15018.448748 14571.201199 14127.615051 13710.063463 13313.354149 12909.582382 12474.779567 11972.967672 11411.139700 10845.463552 10306.897290 9786.879495 9299.689474 8849.892343 8417.329396 7976.955372 7499.534659 7002.211834 6537.069817 6113.288858 5692.696602 5247.389225 4786.642653 4337.278283 3917.460845 3526.162129 3140.142146 2714.950452 2214.960806 1691.077919 1278.761802 1033.160133 910.039232 835.869534 733.607467 529.880149 219.675162 -80.245328 -273.596358 -366.547350 -399.880019 -403.147804 -392.178920 -374.600784 -353.947396 -331.850020 -309.089739 -286.078451 -263.071207 -240.257474 -217.799654 -195.848910 -174.550818 -154.045945 -134.467712 -115.938898 -98.567734 -82.444267 -67.637435 -54.193094 -42.133085 -31.455325 -22.134855 -14.125702 -7.363398 -1.767997 2.752598 6.299183 8.977812 10.896547 12.162474 12.879113 13.144251 13.048250 12.672815 12.090220 11.362946 10.543680 9.675625 8.793053 7.922040 7.081333 6.283283 5.534814 4.838379 4.192881 3.594541 3.037687 2.515475 2.020527 1.545512 1.083702 0.629581 0.179676 -0.266127 -0.702894 -1.120083 -1.509927 -1.774536 -1.825860 -1.825860 -1.825860 17301.015221 17301.015221 17301.015221 17299.266536 17259.573450 17043.898289 16599.376227 16026.464709 15486.463678 15018.448748 14571.201199 14127.615051 13710.063463 13313.354149 12909.582382 12474.779567 11972.967672 11411.139700 10845.463552 10306.897290 9786.879495 9299.689474 8849.892343 8417.329396 7976.955372 7499.534659 7002.211834 6537.069817 6113.288858 5692.696602 5247.389225 4786.642653 4337.278283 3917.460845 3526.162129 3140.142146 2714.950452 2214.960806 1691.077919 1278.761802 1033.160133 910.039232 835.869534 733.607467 529.880149 219.675162 -80.245328 -273.596358 -366.547350 -399.880019 -403.147804 -392.178920 -374.600784 -353.947396 -331.850020 -309.089739 -286.078451 -263.071207 -240.257474 -217.799654 -195.848910 -174.550818 -154.045945 -134.467712 -115.938898 -98.567734 -82.444267 -67.637435 -54.193094 -42.133085 -31.455325 -22.134855 -14.125702 -7.363398 -1.767997 2.752598 6.299183 8.977812 10.896547 12.162474 12.879113 13.144251 13.048250 12.672815 12.090220 11.362946 10.543680 9.675625 8.793053 7.922040 7.081333 6.283283 5.534814 4.838379 4.192881 3.594541 3.037687 2.515475 2.020527 1.545512 1.083702 0.629581 0.179676 -0.266127 -0.702894 -1.120083 -1.509927 -1.774536 -1.825860 -1.825860 -1.825860 13096.477401 13096.477401 13096.477401 13107.189087 13362.273813 13763.973923 13707.633958 13721.130602 13166.011924 12908.992056 12425.569226 11604.792537 11616.162877 11177.055412 9876.057528 9433.762105 9416.743885 8832.232088 7834.527222 7485.820147 7004.119444 6099.031533 5251.683953 4771.893921 3631.722112 2883.025171 2632.077335 2374.719993 2146.776020 2050.635559 1581.486525 -495.321923 -1194.736793 -400.388454 140.924797 645.924245 1290.825540 586.279162 -1096.441732 -919.645041 -222.955837 511.691180 729.147594 -1005.390919 -1614.121531 -694.908052 -132.302213 -1497.719906 -2527.057015 -2140.265612 -1846.434534 -1676.416533 -1567.612703 -1491.105397 -1432.872903 -1386.843719 13221.476268 13221.476268 13221.476268 13236.819394 13657.548902 14294.857398 13781.900101 17067.480127 14168.623938 13575.250758 13824.784952 13756.985968 16058.022928 17499.067714 14131.487333 13080.552934 16813.978532 14741.010746 16737.269366 15781.006146 14767.830139 16617.403061 16046.030547 14842.611071 14382.565963 17050.723928 18002.078760 15045.105261 13651.931451 14860.366961 16532.917006 14577.458168 15386.614550 15719.275614 13466.382431 16328.297921 14539.296350 13170.026249 14511.471257 15322.234365 12859.036752 14327.657388 16023.217275 14370.774511 15231.606904 12978.789354 14502.710185 15296.898706 15983.445763 13789.197440 13574.944618 15580.993708 16425.062355 3222.237935 -825.271052 -2237.405172 13421.188175 13421.188175 13421.188175 13410.587109 13324.407696 13483.150036 13744.164482 14243.644859 12884.714141 13960.536314 14354.805912 14261.955100 14273.321821 14474.814867 12203.970040 11304.477091 14843.017851 18144.066873 15247.626966 13244.364854 16268.282454 16232.930575 12690.056337 14195.938394 15259.195483 13384.103022 15136.294069 16183.711806 14493.300867 14509.216709 16145.963337 14704.715440 15071.425288 15787.478625 14032.825869 16724.160571 12983.512089 15386.103392 13011.980462 11192.184254 13117.605796 13441.496021 14016.073448 12960.643016 16043.955720 12420.241142 15553.504455 14074.172238 15018.423256 15165.440070 15921.474366 16157.230666 7860.432291 11740.716362 -468.913899 -30.552351 13633.835450 13633.835450 13633.835450 13654.084790 13799.557726 15181.553587 12582.743377 15147.624325 14151.198020 13813.842452 12352.295986 12595.853643 13475.351904 13747.670516 14101.102700 13696.254411 13328.887610 14246.508564 14641.421718 14121.765051 11493.885154 12343.659554 14637.627477 12762.589017 12787.072810 17117.647942 11752.187527 15623.468555 14887.238025 13180.586551 14665.437862 15489.727164 14657.939039 15084.206120 13356.315819 14948.990738 14712.120448 13262.211364 13940.464491 16068.630178 13336.559194 12691.139210 14654.745869 12955.426316 15457.659355 16513.423387 11690.976078 13922.950022 16084.163267 