<VTKFile type="PolyData">
<PolyData>
<Piece NumberOfPoints="8632" NumberOfVerts="8632" NumberOfLines="0" NumberOfStrips="0" NumberOfPolys="0">
<PointData>
<DataArray type="Float64" Name="Pressure" format="ascii">
 13024.625180 13024.625180 13024.625180 13015.573598 12917.581178 12679.139455 12424.707269 12127.862403 11770.077823 11343.676463 10850.719940 10307.362720 9739.236801 9151.804438 8532.981106 7878.599108 7194.597268 6493.264670 5785.911398 5090.081824 4433.151051 3823.166731 3255.030028 2733.049383 2264.607196 1853.270452 1506.093714 1226.287400 1003.590796 813.868219 622.653896 405.959538 196.511365 66.402544 30.327713 47.062060 62.253988 21.080120 -92.539827 -208.265464 -265.462650 -289.241104 -341.810369 -473.697325 -659.102966 -815.271224 -940.359007 -1095.139558 -1290.269807 -1442.782929 -1508.216631 -1513.189188 -1487.495590 -1445.999812 -1396.156994 -1341.458223 -1283.480266 -1223.620769 -1163.352714 -1103.625011 -1044.895100 -987.395919 -931.274539 -876.648979 -823.626019 -772.304041 -722.771116 -675.102413 -629.358306 -585.583514 -543.807150 -504.043439 -466.292861 -430.543504 -396.772479 -364.947304 -335.027199 -306.964267 -280.704570 -256.189096 -233.354639 -212.134606 -192.459756 -174.258884 -157.459454 -141.988190 -127.771610 -114.736523 -102.810472 -91.922134 -82.001666 -72.981004 -64.794120 -57.377224 -50.668927 -44.610368 -39.145297 -34.220139 -29.784059 -25.789067 -22.190301 -18.946779 -16.023329 -13.395097 -11.055647 -9.017324 -7.258754 -6.128774 -5.915586 -5.915586 -5.915586 13024.625180 13024.625180 13024.625180 13015.573598 12917.581178 12679.139455 12424.707269 12127.862403 11770.077823 11343.676463 10850.719940 10307.362720 9739.236801 9151.804438 8532.981106 7878.599108 7194.597268 6493.264670 5785.911398 5090.081824 4433.151051 3823.166731 3255.030028 2733.049383 2264.607196 1853.270452 1506.093714 1226.287400 1003.590796 813.868219 622.653896 405.959538 196.511365 66.402544 30.327713 47.062060 62.253988 21.080120 -92.539827 -208.265464 -265.462650 -289.241104 -341.810369 -473.697325 -659.102966 -815.271224 -940.359007 -1095.139558 -1290.269807 -1442.782929 -1508.216631 -1513.189188 -1487.495590 -1445.999812 -1396.156994 -1341.458223 -1283.480266 -1223.620769 -1163.352714 -1103.625011 -1044.895100 -987.395919 -931.274539 -876.648979 -823.626019 -772.304041 -722.771116 -675.102413 -629.358306 -585.583514 -543.807150 -504.043439 -466.292861 -430.543504 -396.772479 -364.947304 -335.027199 -306.964267 -280.704570 -256.189096 -233.354639 -212.134606 -192.459756 -174.258884 -157.459454 -141.988190 -127.771610 -114.736523 -102.810472 -91.922134 -82.001666 -72.981004 -64.794120 -57.377224 -50.668927 -44.610368 -39.145297 -34.220139 -29.784059 -25.789067 -22.190301 -18.946779 -16.023329 -13.395097 -11.055647 -9.017324 -7.258754 -6.128774 -5.915586 -5.915586 -5.915586 13024.625180 13024.625180 13024.625180 13015.573598 12917.581178 12679.139455 12424.707269 12127.862403 11770.077823 11343.676463 10850.719940 10307.362720 9739.236801 9151.804438 8532.981106 7878.599108 7194.597268 6493.264670 5785.911398 5090.081824 4433.151051 3823.166731 3255.030028 2733.049383 2264.607196 1853.270452 1506.093714 1226.287400 1003.590796 813.868219 622.653896 405.959538 196.511365 66.402544 30.327713 47.062060 62.253988 21.080120 -92.539827 -208.265464 -265.462650 -289.241104 -341.810369 -473.697325 -659.102966 -815.271224 -940.359007 -1095.139558 -1290.269807 -1442.782929 -1508.216631 -1513.189188 -1487.495590 -1445.999812 -1396.156994 -1341.458223 -1283.480266 -1223.620769 -1163.352714 -1103.625011 -1044.895100 -987.395919 -931.274539 -876.648979 -823.626019 -772.304041 -722.771116 -675.102413 -629.358306 -585.583514 -543.807150 -504.043439 -466.292861 -430.543504 -396.772479 -364.947304 -335.027199 -306.964267 -280.704570 -256.189096 -233.354639 -212.134606 -192.459756 -174.258884 -157.459454 -141.988190 -127.771610 -114.736523 -102.810472 -91.922134 -82.001666 -72.981004 -64.794120 -57.377224 -50.668927 -44.610368 -39.145297 -34.220139 -29.784059 -25.789067 -22.190301 -18.946779 -16.023329 -13.395097 -11.055647 -9.017324 -7.258754 -6.128774 -5.915586 -5.915586 -5.915586 13028.114718 13028.114718 13028.114718 13019.191236 12922.370693 12690.752104 12444.451401 12148.269331 11789.404910 11363.619222 10868.846191 10316.488480 9745.974614 9161.175542 8540.464671 7884.750459 7196.926609 6494.536835 5788.805161 5088.894375 4439.141572 3841.362125 3277.435256 2754.468634 2285.243506 1868.558008 1515.827239 1234.147621 1014.059974 830.890745 643.823042 411.837161 173.090377 36.945651 15.418793 50.624473 83.893161 52.625994 -91.617669 -230.146181 -276.208978 -277.749007 -311.420098 -447.497241 -673.979920 -821.663449 -920.803362 -1090.173632 -1324.825747 -1465.037570 -1527.485702 -1524.272056 -1493.486952 -1449.377658 -1398.326041 -1343.088743 -1284.587645 -1224.195692 -1163.592128 -1103.711759 -1044.917643 -987.391833 -931.259000 -876.628053 -823.602182 -772.278380 -722.744192 -675.074587 -629.329862 -585.554697 -543.778179 -504.014511 -466.264150 -430.515163 -396.744640 -364.920081 -335.000689 -306.938553 -280.679720 -256.165166 -233.331675 -212.112642 -192.438818 -174.238988 -157.440610 -141.970397 -127.754863 -114.720810 -102.795776 -91.908433 -81.988933 -72.969209 -64.783230 -57.367204 -50.659740 -44.601972 -39.137642 -34.213160 -29.777649 -25.783010 -22.184109 -18.939284 -16.011796 -13.373883 -11.019294 -8.970725 -7.220637 -6.098682 -5.887271 -5.887271 -5.887271 13066.367506 13066.367506 13066.367506 13057.764550 12967.602195 12805.853096 12647.233866 12316.044173 11915.876137 11533.619155 11047.964936 10389.419407 9816.536045 9290.508861 8644.605752 7978.431197 7228.297264 6507.257286 5823.222578 5036.022497 4478.142418 4073.375976 3554.248662 3005.433164 2538.811742 2057.268223 1627.171883 1321.119119 1130.480400 1033.864454 962.942550 557.923171 -234.337839 -369.557075 -162.634387 92.232623 363.180130 537.262747 -109.041356 -618.277574 -414.956125 -147.968232 155.032325 -109.005516 -970.168173 -985.008357 -718.025344 -1063.408600 -1911.137484 -1910.393888 -1749.479871 -1644.900405 -1558.315265 -1485.986268 -1422.321864 -1362.897078 -1298.330574 -1230.176090 -1165.984674 -1104.556700 -1045.131595 -987.346166 -931.101709 -876.418065 -823.363539 -772.021675 -722.474921 -674.796328 -629.045434 -585.266548 -543.488503 -503.725271 -465.977087 -430.231803 -396.466308 -364.647917 -334.735663 -306.681484 -280.431294 -255.925946 -233.102110 -211.893082 -192.229515 -174.040108 -157.252236 -141.792540 -127.587465 -114.563751 -102.648881 -91.771480 -81.861658 -72.851315 -64.674389 -57.267061 -50.567917 -44.518054 -39.061146 -34.143440 -29.713648 -25.722624 -22.122563 -18.865053 -15.896728 -13.153207 -10.569297 -8.359315 -6.750172 -5.754315 -5.576760 -5.576760 -5.576760 13126.640815 13126.640815 13126.640815 13115.274784 12970.862365 12760.672997 12884.010347 12123.632093 11594.800638 11553.556160 11382.331050 10275.180937 9913.133434 9819.059310 8630.342540 8456.026195 7378.574194 6374.393351 6331.675010 4593.038061 4414.828173 4707.780528 4089.700569 3205.542999 3010.254498 2328.883116 1772.825760 1431.205438 1275.974242 1297.181033 1592.582578 970.048398 -998.642855 -1082.593634 -387.058551 143.343767 763.624680 1216.879495 -205.416494 -1240.670819 -633.756803 23.841015 835.798495 348.705909 -1422.394712 -1275.972777 -291.200692 -396.357348 -2150.643792 -2457.377421 -2024.126660 -1787.858101 -1634.510256 -1529.141896 -1451.621547 -1392.296021 -1324.785606 -1240.790545 -1169.779942 -1105.911077 -1045.526399 -987.353988 -930.946542 -876.188627 -823.095763 -771.731040 -722.169064 -674.479885 -628.721843 -584.938694 -543.158920 -503.396209 -465.650532 -429.909490 -396.149740 -364.338385 -334.434269 -306.389159 -280.148814 -255.653947 -232.841105 -211.643464 -191.991571 -173.814024 -157.038108 -141.590378 -127.397201 -114.385248 -102.481940 -91.615847 -81.717033 -72.717356 -64.550722 -57.153281 -50.463586 -44.422686 -38.974154 -34.063993 -29.640300 -25.652358 -22.048323 -18.769319 -15.734074 -12.797731 -9.601904 -7.233629 -6.013482 -5.279452 -5.144925 -5.144925 -5.144925 -6.772856 -5.717974 -5.160362 -5.084869 -5.084869 -5.084869 -5.700502 -5.101748 -4.725727 -4.674221 -4.674221 -4.674221 -4.437537 -4.233918 -4.066396 -4.042758 -4.042758 -4.042758 -3.613517 -3.538005 -3.472869 -3.463245 -3.463245 -3.463245 -2.999275 -2.973672 -2.952371 -2.949347 -2.949347 -2.949347 -2.510846 -2.505023 -2.501616 -2.501331 -2.501331 -2.501331 -2.108586 -2.110387 -2.113819 -2.114572 -2.114572 -2.114572 -1.771532 -1.775966 -1.781630 -1.782704 -1.782704 -1.782704 -1.486958 -1.491997 -1.498024 -1.499130 -1.499130 -1.499130 -1.246067 -1.250919 -1.256591 -1.257619 -1.257619 -1.257619 -1.042140 -1.046526 -1.051604 -1.052520 -1.052520 -1.052520 -0.869712 -0.873564 -0.878004 -0.878803 -0.878803 -0.878803 -0.724185 -0.727517 -0.731352 -0.732042 -0.732042 -0.732042 -0.601624 -0.604484 -0.607772 -0.608363 -0.608363 -0.608363 -0.498645 -0.501086 -0.503891 -0.504394 -0.504394 -0.504394 -0.412324 -0.414399 -0.416783 -0.417211 -0.417211 -0.417211 -0.340144 -0.341902 -0.343922 -0.344284 -0.344284 -0.344284 -0.279936 -0.281421 -0.283127 -0.283433 -0.283433 -0.283433 -0.229838 -0.231089 -0.232526 -0.232785 -0.232785 -0.232785 -0.188257 -0.189308 -0.190515 -0.190732 -0.190732 -0.190732 -0.153830 -0.154711 -0.155722 -0.155904 -0.155904 -0.155904 -0.125398 -0.126134 -0.126979 -0.127131 -0.127131 -0.127131 -0.101976 -0.102589 -0.103294 -0.103420 -0.103420 -0.103420 -0.082729 -0.083238 -0.083824 -0.083929 -0.083929 -0.083929 -0.066952 -0.067375 -0.067860 -0.067948 -0.067948 -0.067948 -0.054054 -0.054403 -0.054804 -0.054877 -0.054877 -0.054877 -0.043534 -0.043822 -0.044153 -0.044213 -0.044213 -0.044213 -0.034977 -0.035213 -0.035486 -0.035535 -0.035535 -0.035535 -0.028033 -0.028227 -0.028450 -0.028491 -0.028491 -0.028491 -0.022413 -0.022572 -0.022754 -0.022787 -0.022787 -0.022787 -0.017876 -0.018005 -0.018154 -0.018181 -0.018181 -0.018181 -0.014222 -0.014327 -0.014449 -0.014471 -0.014471 -0.014471 -0.011287 -0.011373 -0.011472 -0.011489 -0.011489 -0.011489 -0.008936 -0.009006 -0.009085 -0.009100 -0.009100 -0.009100 -0.007058 -0.007114 -0.007178 -0.007189 -0.007189 -0.007189 -0.005560 -0.005605 -0.005657 -0.005666 -0.005666 -0.005666 -0.004370 -0.004406 -0.004447 -0.004455 -0.004455 -0.004455 -0.003425 -0.003454 -0.003488 -0.003494 -0.003494 -0.003494 -0.002679 -0.002702 -0.002728 -0.002733 -0.002733 -0.002733 -0.002089 -0.002108 -0.002129 -0.002133 -0.002133 -0.002133 -0.001626 -0.001640 -0.001657 -0.001660 -0.001660 -0.001660 -0.001262 -0.001273 -0.001287 -0.001289 -0.001289 -0.001289 -0.000977 -0.000986 -0.000997 -0.000999 -0.000999 -0.000999 -0.000755 -0.000762 -0.000770 -0.000772 -0.000772 -0.000772 -0.000581 -0.000587 -0.000593 -0.000595 -0.000595 -0.000595 -0.000447 -0.000451 -0.000456 -0.000457 -0.000457 -0.000457 -0.000342 -0.000346 -0.000350 -0.000351 -0.000351 -0.000351 -0.000262 -0.000265 -0.000268 -0.000268 -0.000268 -0.000268 -0.000200 -0.000202 -0.000204 -0.000205 -0.000205 -0.000205 -0.000152 -0.000154 -0.000155 -0.000156 -0.000156 -0.000156 -0.000115 -0.000117 -0.000118 -0.000118 -0.000118 -0.000118 -0.000087 -0.000088 -0.000089 -0.000090 -0.000090 -0.000090 -0.000066 -0.000067 -0.000068 -0.000068 -0.000068 -0.000068 -0.000050 -0.000050 -0.000051 -0.000051 -0.000051 -0.000051 -0.000037 -0.000038 -0.000038 -0.000038 -0.000038 -0.000038 -0.000028 -0.000028 -0.000029 -0.000029 -0.000029 -0.000029 -0.000021 -0.000021 -0.000021 -0.000022 -0.000022 -0.000022 -0.000016 -0.000016 -0.000016 -0.000016 -0.000016 -0.000016 -0.000012 -0.000012 -0.000012 -0.000012 -0.000012 -0.000012 -0.000009 -0.000009 -0.000009 -0.000009 -0.000009 -0.000009 -0.000006 -0.000006 -0.000007 -0.000007 -0.000007 -0.000007 -0.000005 -0.000005 -0.000005 -0.000005 -0.000005 -0.000005 -0.000003 -0.000004 -0.000004 -0.000004 -0.000004 -0.000004 -0.000003 -0.000003 -0.000003 -0.000003 -0.000003 -0.000003 -0.000002 -0.000002 -0.000002 -0.000002 -0.000002 -0.000002 -0.000001 -0.000001 -0.000001 -0.000001 -0.000001 -0.000001 -0.000001 -0.000001 -0.000001 -0.000001 -0.000001 -0.000001 -0.000001 -0.000001 -0.000001 -0.000001 -0.000001 -0.000001 -0.000001 -0.000001 -0.000001 -0.000001 -0.000001 -0.000001 -0.000000 -0.000000 -0.000000 -0.000000 -0.000000 -0.000000 -0.000000 -0.000000 -0.000000 -0.000000 -0.000000 -0.000000 -0.000000 -0.000000 -0.000000 -0.000000 -0.000000 -0.000000 -0.000000 -0.000000 -0.000000 -0.000000 -0.000000 -0.000000 -0.000000 -0.000000 -0.000000 -0.000000 -0.000000 -0.000000 -0.000000 -0.000000 -0.000000 -0.000000 -0.000000 -0.000000 -0.000000 -0.000000 -0.000000 -0.000000 -0.000000 -0.000000 -0.000000 -0.000000 -0.000000 -0.000000 -0.000000 -0.000000 -0.000000 -0.000000 -0.000000 -0.000000 -0.000000 -0.000000 -0.000000 -0.000000 -0.000000 -0.000000 -0.000000 -0.000000 -0.000000 -0.000000 -0.000000 -0.000000 -0.000000 -0.000000 -0.000000 -0.000000 -0.000000 -0.000000 -0.000000 -0.000000 -0.000000 -0.000000 -0.000000 -0.000000 -0.000000 -0.000000 -0.000000 -0.000000 -0.000000 -0.000000 -0.000000 -0.000000 -0.000000 -0.000000 -0.000000 -0.000000 -0.000000 -0.000000 -0.000000 -0.000000 -0.000000 -0.000000 -0.000000 -0.000000 -0.000000 -0.000000 -0.000000 -0.000000 -0.000000 -0.000000 -0.000000 -0.000000 -0.000000 -0.000000 -0.000000 -0.000000 -0.000000 -0.000000 -0.000000 0.000000 0.000000 0.000000 -0.000000 -0.000000 -0.000000 0.000000 0.000000 0.000000 -0.000000 -0.000000 -0.000000 0.000000 0.000000 0.000000 -0.000000 -0.000000 -0.000000 0.000000 0.000000 0.000000 -0.000000 -0.000000 -0.000000 0.000000 0.000000 0.000000 -0.000000 -0.000000 -0.000000 0.000000 0.000000 0.000000 -0.000000 -0.000000 -0.000000 0.000000 0.000000 0.000000 -0.000000 -0.000000 -0.000000 0.000000 0.000000 0.000000 -0.000000 -0.000000 -0.000000 0.000000 0.000000 0.000000 -0.000000 -0.000000 -0.000000 0.000000 0.000000 0.000000 -0.000000 -0.000000 -0.000000 0.000000 0.000000 0.000000 -0.000000 -0.000000 -0.000000 0.000000 0.000000 0.000000 -0.000000 -0.000000 -0.000000 0.000000 0.000000 0.000000 -0.000000 -0.000000 -0.000000 0.000000 0.000000 0.000000 -0.000000 -0.000000 -0.000000 0.000000 0.000000 0.000000 -0.000000 -0.000000 -0.000000 0.000000 0.000000 0.000000 -0.000000 -0.000000 -0.000000 0.000000 0.000000 0.000000 -0.000000 -0.000000 -0.000000 0.000000 0.000000 0.000000 -0.000000 -0.000000 -0.000000 0.000000 0.000000 0.000000 -0.000000 -0.000000 -0.000000 0.000000 0.000000 0.000000 -0.000000 -0.000000 -0.000000 0.000000 0.000000 0.000000 -0.000000 -0.000000 -0.000000 0.000000 0.000000 0.000000 -0.000000 -0.000000 -0.000000 0.000000 0.000000 0.000000 -0.000000 -0.000000 -0.000000 0.000000 0.000000 0.000000 -0.000000 -0.000000 -0.000000 0.000000 0.000000 0.000000 -0.000000 -0.000000 -0.000000 0.000000 0.000000 0.000000 0.000000 -0.000000 -0.000000 0.000000 0.000000 0.000000 0.000000 -0.000000 0.000000 0.000000 0.000000 0.000000 0.000000 0.000000 0.000000 0.000000 0.000000 0.000000 0.000000 0.000000 0.000000 0.000000 0.000000 0.000000 0.000000 0.000000 0.000000 0.000000 0.000000 0.000000 0.000000 0.000000 0.000000 0.000000 0.000000 0.000000 0.000000 0.000000 0.000000 0.000000 0.000000 0.000000 0.000000 0.000000 0.000000 0.000000 0.000000 0.000000 0.000000 0.000000 0.000000 0.000000 0.000000 0.000000 0.000000 0.000000 0.000000 0.000000 0.000000 0.000000 0.000000 0.000000 0.000000 0.000000 0.000000 0.000000 0.000000 0.000000 0.000000 0.000000 0.000000 0.000000 0.000000 0.000001 0.000001 0.000001 0.000001 0.000001 0.000001 0.000001 0.000001 0.000001 0.000001 0.000001 0.000001 0.000001 0.000002 0.000002 0.000002 0.000002 0.000002 0.000002 0.000003 0.000003 0.000003 0.000003 0.000004 0.000004 0.000004 0.000004 0.000004 0.000004 0.000007 0.000007 0.000007 0.000007 0.000007 0.000007 0.000011 0.000011 0.000012 0.000012 0.000012 0.000012 0.000018 0.000018 0.000019 0.000019 0.000019 0.000019 0.000029 0.000030 0.000031 0.000031 0.000031 0.000031 0.000046 0.000047 0.000049 0.000049 0.000049 0.000049 0.000072 0.000074 0.000077 0.000077 0.000077 0.000077 0.000113 0.000116 0.000120 0.000121 0.000121 0.000121 0.000176 0.000180 0.000186 0.000187 0.000187 0.000187 0.000270 0.000277 0.000285 0.000286 0.000286 0.000286 0.000412 0.000422 0.000433 0.000435 0.000435 0.000435 0.000621 0.000635 0.000652 0.000655 0.000655 0.000655 0.000928 0.000949 0.000972 0.000976 0.000976 0.000976 0.001374 0.001403 0.001436 0.001441 0.001441 0.001441 0.002015 0.002054 0.002100 0.002108 0.002108 0.002108 0.002926 0.002980 0.003042 0.003053 0.003053 0.003053 0.004207 0.004280 0.004364 0.004379 0.004379 0.004379 0.005988 0.006086 0.006199 0.006220 0.006220 0.006220 0.008441 0.008570 0.008719 0.008746 0.008746 0.008746 0.011778 0.011947 0.012141 0.012176 0.012176 0.012176 0.016268 0.016485 0.016735 0.016780 0.016780 0.016780 0.022240 0.022515 0.022832 0.022889 0.022889 0.022889 0.030089 0.030433 0.030829 0.030900 0.030900 0.030900 0.040280 0.040703 0.041189 0.041276 0.041276 0.041276 0.053348 0.053859 0.054445 0.054551 0.054551 0.054551 0.069887 0.070494 0.071189 0.071313 0.071313 0.071313 0.090541 0.091247 0.092054 0.092199 0.092199 0.092199 0.115974 0.116776 0.117693 0.117857 0.117857 0.117857 0.146831 0.147720 0.148734 0.148915 0.148915 0.148915 0.183689 0.184643 0.185731 0.185926 0.185926 0.185926 0.226981 0.227969 0.229092 0.229293 0.229293 0.229293 0.276917 0.277889 0.278992 0.279189 0.279189 0.279189 0.333373 0.334264 0.335272 0.335451 0.335451 0.335451 0.395782 0.396508 0.397324 0.397468 0.397468 0.397468 0.463005 0.463462 0.463968 0.464057 0.464057 0.464057 0.533204 0.533272 0.533330 0.533338 0.533338 0.533338 0.603724 0.603266 0.602721 0.602621 0.602621 0.602621 0.670991 0.669862 0.668546 0.668308 0.668308 0.668308 0.730448 0.728497 0.726241 0.725834 0.725834 0.725834 0.776530 0.773614 0.770256 0.769652 0.769652 0.769652 0.802714 0.798707 0.794104 0.793277 0.793277 0.793277 0.801634 0.796439 0.790483 0.789414 0.789414 0.789414 0.765286 0.758853 0.751486 0.750165 0.750165 0.750165 0.685331 0.677664 0.668895 0.667324 0.667324 0.667324 0.553480 0.544655 0.534573 0.532768 0.532768 0.532768 0.361970 0.352144 0.340928 0.338921 0.338921 0.338921 0.104102 0.093518 0.081447 0.079288 0.079288 0.079288 -0.225172 -0.236184 -0.248733 -0.250977 -0.250977 -0.250977 -0.628668 -0.639694 -0.652250 -0.654493 -0.654493 -0.654493 -1.106410 -1.116967 -1.128976 -1.131121 -1.131121 -1.131121 -1.655156 -1.664705 -1.675556 -1.677492 -1.677492 -1.677492 -2.268042 -2.276017 -2.285066 -2.286679 -2.286679 -2.286679 -2.934399 -2.940236 -2.946841 -2.948018 -2.948018 -2.948018 -3.639769 -3.642940 -3.646503 -3.647135 -3.647135 -3.647135 -4.366151 -4.366200 -4.366204 -4.366199 -4.366199 -4.366199 -5.092489 -5.089066 -5.085115 -5.084403 -5.084403 -5.084403 -5.795388 -5.788284 -5.780140 -5.778679 -5.778679 -5.778679 -6.450048 -6.439216 -6.426830 -6.424611 -6.424611 -6.424611 -7.031361 -7.016937 -7.000465 -6.997516 -6.997516 -6.997516 -7.515118 -7.497433 -7.477249 -7.473637 -7.473637 -7.473637 -7.879263 -7.858839 -7.835536 -7.831367 -7.831367 -7.831367 -8.105093 -8.082649 -8.057034 -8.052450 -8.052450 -8.052450 -8.178335 -8.154791 -8.127889 -8.123072 -8.123072 -8.123072 -8.089974 -8.066506 -8.039597 -8.034770 -8.034770 -8.034770 -7.836727 -7.814915 -7.789671 -7.785119 -7.785119 -7.785119 -7.420929 -7.403177 -7.382035 -7.378164 -7.378164 -7.378164 -6.849480 -6.840057 -6.827148 -6.824624 -6.824624 -6.824624 -6.130957 -6.138589 -6.141921 -6.141989 -6.141989 -6.141989 -5.268739 -5.313496 -5.349695 -5.354772 -5.354772 -5.354772 -4.243489 -4.378528 -4.481365 -4.495456 -4.495456 -4.495456 -2.956237 -3.365251 -3.574891 -3.602589 -3.602589 -3.602589 19692.531618 19692.531618 19692.531618 19602.151593 18860.964397 16353.416016 14156.961681 14701.603667 12068.493015 11371.509062 13903.219086 11068.236627 8998.043306 7430.547901 8557.166059 9941.572126 10961.605697 13020.748383 17908.962259 15816.098061 14304.435383 11243.136327 15803.095546 11630.380736 12533.717143 11434.139471 9451.560745 5246.363024 -377.677033 804.672436 1290.800594 1732.795735 2067.724168 2323.188455 2502.185719 2613.116396 2680.768864 2760.034909 2981.341336 3968.478181 2438.879686 -2432.982225 -1968.081969 -187.892113 648.570350 1428.305326 3145.854801 2826.345295 -2519.324649 -2974.258688 -1404.788195 -848.739410 -588.139728 -457.728282 -384.243502 -336.035315 -299.021259 -266.942207 -237.095932 -208.428307 -180.658577 -153.865713 -128.284113 -104.197181 -81.878951 -61.561163 -43.415235 -27.543890 -13.979576 -2.687899 6.425290 13.504241 18.732113 22.319161 24.491090 25.478260 25.506243 24.788078 23.518386 21.869363 19.988552 17.998178 15.995784 14.055862 12.232183 10.560538 9.061638 7.743980 6.606520 5.641054 4.834256 4.169345 3.627411 3.188428 2.831999 2.537893 2.286424 2.058683 1.836610 1.602796 1.339677 1.027315 0.637634 0.120236 -0.665891 -1.612221 -2.256273 -2.612828 -2.677049 -2.677049 -2.677049 19925.212515 19925.212515 19925.212515 19833.284461 18973.370699 17090.377728 16556.630403 17275.655240 14992.352847 13532.580481 15607.141303 14411.759528 12545.259795 11848.300025 11856.661583 12550.683103 13298.411598 13311.677880 14229.689888 13299.585241 12402.102159 10911.441320 11160.480717 10027.704896 9294.843539 8800.506520 7732.710596 6178.121900 4268.937936 3176.681660 2840.428403 2744.828771 2725.018686 2735.330673 2746.752636 2742.033363 2716.831119 2681.271505 2662.026282 2595.338329 1754.235462 112.292447 2.551361 396.922150 751.233029 1079.779140 1397.031395 1048.990050 -604.346327 -1033.477539 -802.296200 -592.036862 -474.594357 -406.226481 -360.708588 -325.254726 -294.085639 -264.697320 -236.103376 -208.034359 -180.566523 -153.939565 -128.459070 -104.439254 -82.167136 -61.879862 -43.751261 -27.885479 -14.316229 -3.010514 6.124223 13.230496 18.489681 22.110290 24.316426 25.337050 25.396591 24.707222 23.462978 21.835731 19.972933 17.996911 16.005453 14.073403 12.254940 10.586287 9.088582 7.770718 6.632003 5.664536 4.855235 4.187516 3.642621 3.200638 2.841264 2.544357 2.290347 2.060518 1.837209 1.603877 1.344914 1.044916 0.686958 0.250028 -0.275674 -0.845103 -1.354954 -1.683407 -1.743754 -1.743754 -1.743754 20152.401359 20152.401359 20152.401359 20107.819750 19636.069628 18692.343172 18159.353939 17905.583380 17325.210002 16845.219627 16780.872376 16361.419324 15650.260290 15011.567900 14568.036109 14259.967038 13984.940701 13650.060313 13236.830780 12645.119327 11930.343595 11188.974434 10534.233488 9817.411783 9061.510343 8320.053344 7529.273174 6639.386050 5665.615144 4788.088267 4112.833532 3637.128102 3317.978858 3109.766093 2969.046076 2858.513417 2748.710226 2616.114271 2436.011469 2160.590283 1731.747768 1250.838402 958.679650 860.822418 843.579665 831.600719 750.517183 494.800748 93.827642 -204.813709 -331.431162 -368.542256 -371.031659 -358.598305 -338.830787 -315.207464 -289.477344 -262.600302 -235.181384 -207.680171 -180.504544 -154.043173 -128.667264 -104.719136 -82.497436 -62.244029 -44.134838 -28.275325 -14.700499 -3.378885 5.780296 12.917605 18.212394 21.871201 24.116303 25.175067 25.270618 24.614139 23.398988 21.796664 19.954510 17.994958 16.016075 14.093099 12.280672 10.615509 9.119230 7.801182 6.661075 5.691352 4.879214 4.208301 3.660029 3.214618 2.851872 2.551745 2.294785 2.062468 1.837513 1.604189 1.348697 1.059684 0.729144 0.354462 -0.057092 -0.483309 -0.897831 -1.188193 -1.246601 -1.246601 -1.246601 20191.027349 20191.027349 20191.027349 20153.969805 19773.899306 18982.202160 18431.109658 18005.234118 17573.440942 17224.497223 16958.851397 16542.944545 15951.172374 15354.937150 14853.033056 14442.584394 14069.650452 13664.311436 13188.772423 12606.835286 11942.532894 11245.245519 10556.647922 9833.344549 9075.007528 8313.806990 7534.909289 6706.046688 5830.940654 4994.596082 4295.633377 3772.169520 3409.114084 3167.591950 3003.383749 2876.433693 2753.554022 2606.635731 2407.620449 2124.837138 1748.390135 1354.597004 1071.250392 924.717203 857.719766 800.718127 685.068687 456.658740 147.916429 -114.277872 -267.379371 -334.996398 -355.045755 -351.175864 -335.409398 -313.633350 -288.754405 -262.271228 -235.037342 -207.626276 -180.497737 -154.063634 -128.705365 -104.769575 -82.556676 -62.309234 -44.203480 -28.345081 -14.769264 -3.444818 5.718721 12.861568 18.162715 21.828346 24.080412 25.145997 25.247991 24.597399 23.387459 21.789603 19.951151 17.994555 16.017933 14.096589 12.285251 10.620720 9.124703 7.806628 6.666276 5.696152 4.883508 4.212025 3.663149 3.217125 2.853773 2.553068 2.295575 2.062803 1.837529 1.604154 1.349156 1.061802 0.735353 0.369205 -0.028171 -0.437894 -0.840949 -1.124049 -1.180115 -1.180115 -1.180115 20191.027349 20191.027349 20191.027349 20153.969805 19773.899306 18982.202160 18431.109658 18005.234118 17573.440942 17224.497223 16958.851397 16542.944545 15951.172374 15354.937150 14853.033056 14442.584394 14069.650452 13664.311436 13188.772423 12606.835286 11942.532894 11245.245519 10556.647922 9833.344549 9075.007528 8313.806990 7534.909289 6706.046688 5830.940654 4994.596082 4295.633377 3772.169520 3409.114084 3167.591950 3003.383749 2876.433693 2753.554022 2606.635731 2407.620449 2124.837138 1748.390135 1354.597004 1071.250392 924.717203 857.719766 800.718127 685.068687 456.658740 147.916429 -114.277872 -267.379371 -334.996398 -355.045755 -351.175864 -335.409398 -313.633350 -288.754405 -262.271228 -235.037342 -207.626276 -180.497737 -154.063634 -128.705365 -104.769575 -82.556676 -62.309234 -44.203480 -28.345081 -14.769264 -3.444818 5.718721 12.861568 18.162715 21.828346 24.080412 25.145997 25.247991 24.597399 23.387459 21.789603 19.951151 17.994555 16.017933 14.096589 12.285251 10.620720 9.124703 7.806628 6.666276 5.696152 4.883508 4.212025 3.663149 3.217125 2.853773 2.553068 2.295575 2.062803 1.837529 1.604154 1.349156 1.061802 0.735353 0.369205 -0.028171 -0.437894 -0.840949 -1.124049 -1.180115 -1.180115 -1.180115 20191.027349 20191.027349 20191.027349 20153.969805 19773.899306 18982.202160 18431.109658 18005.234118 17573.440942 17224.497223 16958.851397 16542.944545 15951.172374 15354.937150 14853.033056 14442.584394 14069.650452 13664.311436 13188.772423 12606.835286 11942.532894 11245.245519 10556.647922 9833.344549 9075.007528 8313.806990 7534.909289 6706.046688 5830.940654 4994.596082 4295.633377 3772.169520 3409.114084 3167.591950 3003.383749 2876.433693 2753.554022 2606.635731 2407.620449 2124.837138 1748.390135 1354.597004 1071.250392 924.717203 857.719766 800.718127 685.068687 456.658740 147.916429 -114.277872 -267.379371 -334.996398 -355.045755 -351.175864 -335.409398 -313.633350 -288.754405 -262.271228 -235.037342 -207.626276 -180.497737 -154.063634 -128.705365 -104.769575 -82.556676 -62.309234 -44.203480 -28.345081 -14.769264 -3.444818 5.718721 12.861568 18.162715 21.828346 24.080412 25.145997 25.247991 24.597399 23.387459 21.789603 19.951151 17.994555 16.017933 14.096589 12.285251 10.620720 9.124703 7.806628 6.666276 5.696152 4.883508 4.212025 3.663149 3.217125 2.853773 2.553068 2.295575 2.062803 1.837529 1.604154 1.349156 1.061802 0.735353 0.369205 -0.028171 -0.437894 -0.840949 -1.124049 -1.180115 -1.180115 -1.180115 13138.025289 13138.025289 13138.025289 13126.041887 12927.269427 12670.098962 12945.111660 12125.439779 11497.048570 11486.816060 11367.119784 10165.434828 9913.514498 9920.055690 8550.685712 8597.569838 7452.229939 6287.491698 6466.904035 4409.175421 4301.390597 4832.751693 4185.340103 3212.567352 3231.924273 2423.917051 1783.596861 1438.944177 1286.475241 1320.146533 1677.956533 1042.013206 -1081.788671 -1166.296334 -405.282885 147.189050 791.938183 1250.219068 -228.121544 -1283.466660 -650.807449 36.909490 884.268594 386.926879 -1442.745658 -1295.910194 -226.522375 -189.048529 -2011.936424 -2466.729516 -2045.439781 -1798.265988 -1640.025137 -1532.267706 -1453.828174 -1395.151346 13248.799663 13248.799663 13248.799663 13211.532220 12505.827425 11817.107317 11344.883319 16061.374269 11970.156268 11020.056287 11669.476938 11019.990131 15149.788253 14478.946550 12163.338949 12695.838068 14521.013761 11898.741485 14131.781011 12695.686424 12134.934049 14590.524447 12742.353679 13624.855702 13629.415769 15506.493347 16619.263157 13460.571463 11747.235678 12011.252838 14342.428764 12669.888350 14299.873717 13901.837828 13182.576611 12976.062351 11839.653833 13413.378002 13652.332779 13100.020735 13353.290474 12786.755717 13618.531382 12979.571774 12661.684789 13969.260449 14894.997943 13275.957231 13201.760078 12068.102140 12945.849505 14250.071116 15669.872584 3321.386694 -323.070069 -2388.295550 13478.948061 13478.948061 13478.948061 13447.965622 12784.800075 12305.602414 11921.300241 11614.375649 11017.730622 12583.180918 13166.795879 13207.195464 12178.310124 12374.285287 10945.350062 11164.188812 11967.003993 13909.911672 13300.183893 13016.030806 13665.226277 13147.956627 12332.793481 12962.350182 11412.384325 13165.230820 12146.420184 14410.403609 12570.037785 13667.623166 12532.052114 12602.525529 13890.612823 14615.671298 15168.220589 15224.204710 13498.676203 11955.719222 13246.554278 13441.907410 12252.158215 14364.135296 12026.165048 11461.559027 14150.404528 11658.252244 13422.784966 13405.811393 13439.051899 13801.762095 13662.114715 14430.231821 6400.497264 9460.376786 -196.687444 33.355178 13729.246149 13729.246149 13729.246149 13715.336360 13261.334493 13625.991633 11525.328626 13784.499093 11601.994172 11700.017211 10001.825154 11362.412905 12541.565097 13073.250229 13167.685892 11599.497033 11879.187449 12173.341837 12022.350452 12849.909000 12957.802672 11687.217501 12789.355252 12322.373948 14196.698759 14356.055179 10750.976778 12110.887915 14128.820832 13155.745038 13134.091044 11954.635786 13139.522223 13986.639447 13449.221031 13473.571393 15117.733155 13961.862064 13429.577071 13652.366324 13474.849607 14424.635652 13376.213369 13173.917380 14189.185084 13232.813796 13364.948669 10941.097330 13495.689939 14325.047629 12122.232040 13120.850929 708.075260 11264.242366 3438.644198 4848.877804 13985.428492 1