<VTKFile type="PolyData">
<PolyData>
<Piece NumberOfPoints="8632" NumberOfVerts="8632" NumberOfLines="0" NumberOfStrips="0" NumberOfPolys="0">
<PointData>
<DataArray type="Float64" Name="Pressure" format="ascii">
 11748.464123 11748.464123 11748.464123 11748.476990 11747.413071 11739.407999 11710.259390 11640.369212 11495.191312 11246.413967 10905.986609 10510.555746 10085.953374 9640.061516 9176.759457 8697.017746 8192.232266 7664.741968 7135.165777 6612.194853 6082.961254 5544.092879 4993.394255 4415.424801 3818.497696 3239.735878 2699.424694 2207.160114 1773.954774 1385.994043 1033.035060 759.161888 586.913999 423.037692 201.420247 1.515135 -89.672030 -74.295065 -27.543571 -50.871025 -149.689273 -223.507278 -242.498243 -261.650988 -348.679485 -512.952740 -677.440154 -809.523580 -958.221816 -1143.756767 -1299.685484 -1377.194776 -1392.892391 -1372.931132 -1332.401564 -1279.600067 -1218.967485 -1153.795533 -1086.884510 -1020.045736 -954.294979 -890.240100 -828.276134 -768.673295 -711.616627 -657.226870 -605.574037 -556.687793 -510.565923 -467.181291 -426.487452 -388.423058 -352.915244 -319.882196 -289.235090 -260.879597 -234.717076 -210.645578 -188.560745 -168.356630 -149.926485 -133.163517 -117.961615 -104.216039 -91.824059 -80.685541 -70.703467 -61.784379 -53.838755 -46.781303 -40.531178 -35.012130 -30.152585 -25.885654 -22.149097 -18.885227 -16.040779 -13.566744 -11.418178 -9.554020 -7.936955 -6.533444 -5.314173 -4.255430 -3.341797 -2.565995 -1.909490 -1.492411 -1.414122 -1.414122 -1.414122 11748.464123 11748.464123 11748.464123 11748.476990 11747.413071 11739.407999 11710.259390 11640.369212 11495.191312 11246.413967 10905.986609 10510.555746 10085.953374 9640.061516 9176.759457 8697.017746 8192.232266 7664.741968 7135.165777 6612.194853 6082.961254 5544.092879 4993.394255 4415.424801 3818.497696 3239.735878 2699.424694 2207.160114 1773.954774 1385.994043 1033.035060 759.161888 586.913999 423.037692 201.420247 1.515135 -89.672030 -74.295065 -27.543571 -50.871025 -149.689273 -223.507278 -242.498243 -261.650988 -348.679485 -512.952740 -677.440154 -809.523580 -958.221816 -1143.756767 -1299.685484 -1377.194776 -1392.892391 -1372.931132 -1332.401564 -1279.600067 -1218.967485 -1153.795533 -1086.884510 -1020.045736 -954.294979 -890.240100 -828.276134 -768.673295 -711.616627 -657.226870 -605.574037 -556.687793 -510.565923 -467.181291 -426.487452 -388.423058 -352.915244 -319.882196 -289.235090 -260.879597 -234.717076 -210.645578 -188.560745 -168.356630 -149.926485 -133.163517 -117.961615 -104.216039 -91.824059 -80.685541 -70.703467 -61.784379 -53.838755 -46.781303 -40.531178 -35.012130 -30.152585 -25.885654 -22.149097 -18.885227 -16.040779 -13.566744 -11.418178 -9.554020 -7.936955 -6.533444 -5.314173 -4.255430 -3.341797 -2.565995 -1.909490 -1.492411 -1.414122 -1.414122 -1.414122 11748.464123 11748.464123 11748.464123 11748.476990 11747.413071 11739.407999 11710.259390 11640.369212 11495.191312 11246.413967 10905.986609 10510.555746 10085.953374 9640.061516 9176.759457 8697.017746 8192.232266 7664.741968 7135.165777 6612.194853 6082.961254 5544.092879 4993.394255 4415.424801 3818.497696 3239.735878 2699.424694 2207.160114 1773.954774 1385.994043 1033.035060 759.161888 586.913999 423.037692 201.420247 1.515135 -89.672030 -74.295065 -27.543571 -50.871025 -149.689273 -223.507278 -242.498243 -261.650988 -348.679485 -512.952740 -677.440154 -809.523580 -958.221816 -1143.756767 -1299.685484 -1377.194776 -1392.892391 -1372.931132 -1332.401564 -1279.600067 -1218.967485 -1153.795533 -1086.884510 -1020.045736 -954.294979 -890.240100 -828.276134 -768.673295 -711.616627 -657.226870 -605.574037 -556.687793 -510.565923 -467.181291 -426.487452 -388.423058 -352.915244 -319.882196 -289.235090 -260.879597 -234.717076 -210.645578 -188.560745 -168.356630 -149.926485 -133.163517 -117.961615 -104.216039 -91.824059 -80.685541 -70.703467 -61.784379 -53.838755 -46.781303 -40.531178 -35.012130 -30.152585 -25.885654 -22.149097 -18.885227 -16.040779 -13.566744 -11.418178 -9.554020 -7.936955 -6.533444 -5.314173 -4.255430 -3.341797 -2.565995 -1.909490 -1.492411 -1.414122 -1.414122 -1.414122 11758.781684 11758.781684 11758.781684 11758.563679 11755.787881 11744.395921 11714.366779 11653.667046 11520.423559 11268.303241 10915.452585 10513.192071 10088.534105 9642.462812 9179.505209 8704.181783 8200.989752 7676.436752 7153.517746 6639.460015 6109.534800 5568.656556 5021.029748 4440.371680 3834.885651 3255.623977 2712.709387 2212.478841 1782.161450 1396.408204 1024.445777 740.401642 608.940304 459.989001 193.144589 -51.712903 -149.272041 -106.981657 -19.663577 -30.686937 -173.173155 -251.632011 -249.684136 -245.674036 -322.385258 -522.451538 -697.378742 -810.078661 -929.718149 -1125.583094 -1330.054638 -1401.644435 -1406.773792 -1380.594247 -1336.904856 -1282.527078 -1220.744646 -1154.678233 -1087.250816 -1020.179908 -954.330308 -890.233461 -828.251170 -768.639992 -711.579407 -657.187848 -605.534338 -556.648082 -510.526631 -467.142717 -426.449811 -388.386510 -352.879910 -319.848168 -289.202441 -260.848382 -234.687336 -210.617345 -188.534037 -168.331455 -149.902839 -133.141389 -117.940983 -104.196872 -91.806319 -80.669181 -70.688435 -61.770619 -53.826205 -46.769900 -40.520855 -35.002822 -30.144223 -25.878172 -22.142430 -18.879310 -16.035550 -13.562135 -11.414111 -9.550382 -7.933542 -6.529816 -5.309337 -4.247367 -3.328619 -2.549638 -1.896771 -1.482934 -1.405438 -1.405438 -1.405438 11874.590508 11874.590508 11874.590508 11873.741688 11856.850421 11787.398010 11721.077725 11781.610454 11849.205719 11550.598698 11029.103756 10551.613174 10145.356899 9695.172124 9232.023823 8789.641068 8274.379445 7787.981307 7375.354110 6978.244043 6410.902071 5839.386002 5343.649151 4713.450737 3992.276621 3440.458159 2853.060234 2208.630965 1847.711478 1549.415026 867.261379 406.272730 960.847769 1126.300226 -40.695815 -839.137471 -926.635550 -552.108968 223.086334 345.506113 -594.142374 -675.042314 -336.340363 2.420624 114.899538 -664.424385 -1048.954312 -750.598303 -415.893854 -957.351507 -1691.254396 -1680.661325 -1559.470039 -1463.856552 -1386.333695 -1316.741848 -1241.838158 -1163.733203 -1090.891069 -1021.485447 -954.665779 -890.159395 -827.998297 -768.305588 -711.206602 -656.797371 -605.137248 -556.250956 -510.133748 -466.757043 -426.073486 -388.021123 -352.526664 -319.507989 -288.876048 -260.536331 -234.390046 -210.335114 -188.267052 -168.079794 -149.666479 -132.920204 -117.734754 -104.005292 -91.629000 -80.505665 -70.538201 -61.633096 -53.700784 -46.655939 -40.417697 -34.909797 -30.060661 -25.803409 -22.075811 -18.820195 -15.983300 -13.516086 -11.373489 -9.514084 -7.899561 -6.493797 -5.261056 -4.163592 -3.165160 -2.334196 -1.739724 -1.375356 -1.310699 -1.310699 -1.310699 12050.820221 12050.820221 12050.820221 12045.871978 11965.428596 11894.260874 11779.478338 11911.419813 12618.565434 12206.568486 11237.208477 10699.282950 10509.666628 9737.296897 9391.879584 9221.792088 7891.447245 7832.307550 7700.123940 7507.397893 6530.004504 6221.424496 5838.815477 4956.244663 3936.487166 3873.771628 3074.425949 1704.522100 1798.057897 2314.298269 513.638508 -1456.783827 2690.413332 3061.055316 -40.941008 -2267.858784 -2508.309285 -1511.473911 713.656974 877.898519 -1394.729641 -1371.462660 -447.637717 378.530884 714.311712 -944.249510 -1624.943920 -687.887669 -138.082540 -1513.946709 -2468.849425 -2049.220774 -1741.968115 -1562.177238 -1445.817158 -1365.259376 -1280.342359 -1179.270400 -1096.580911 -1023.546615 -955.270242 -890.162646 -827.744854 -767.938331 -710.787395 -656.354881 -604.686068 -555.799350 -509.686876 -466.318378 -425.645490 -387.605603 -352.124982 -319.121191 -288.504945 -260.181552 -234.052065 -210.014269 -187.963554 -167.793733 -149.397825 -132.668816 -117.500382 -103.787585 -91.427515 -80.319879 -70.367522 -61.476873 -53.558321 -46.526508 -40.300546 -34.804164 -29.965783 -25.718529 -22.000183 -18.753084 -15.923967 -13.463744 -11.327175 -9.472325 -7.859511 -6.448955 -5.195024 -4.031034 -2.814885 -1.938283 -1.494278 -1.229466 -1.181097 -1.181097 -1.181097 -1.773094 -1.390970 -1.190463 -1.163427 -1.163427 -1.163427 -1.411673 -1.197627 -1.063602 -1.045313 -1.045313 -1.045313 -1.008372 -0.936282 -0.877040 -0.868661 -0.868661 -0.868661 -0.764860 -0.738278 -0.715346 -0.711957 -0.711957 -0.711957 -0.596205 -0.587127 -0.579528 -0.578443 -0.578443 -0.578443 -0.470950 -0.468689 -0.467231 -0.467083 -0.467083 -0.467083 -0.374059 -0.374361 -0.375179 -0.375373 -0.375373 -0.375373 -0.297501 -0.298649 -0.300166 -0.300458 -0.300458 -0.300458 -0.236408 -0.237725 -0.239321 -0.239616 -0.239616 -0.239616 -0.187483 -0.188715 -0.190167 -0.190432 -0.190432 -0.190432 -0.148294 -0.149363 -0.150607 -0.150832 -0.150832 -0.150832 -0.116952 -0.117847 -0.118883 -0.119070 -0.119070 -0.119070 -0.091946 -0.092682 -0.093531 -0.093684 -0.093684 -0.093684 -0.072056 -0.072654 -0.073343 -0.073467 -0.073467 -0.073467 -0.056284 -0.056767 -0.057322 -0.057422 -0.057422 -0.057422 -0.043820 -0.044207 -0.044653 -0.044733 -0.044733 -0.044733 -0.034004 -0.034313 -0.034668 -0.034732 -0.034732 -0.034732 -0.026299 -0.026544 -0.026827 -0.026878 -0.026878 -0.026878 -0.020272 -0.020466 -0.020691 -0.020731 -0.020731 -0.020731 -0.015574 -0.015728 -0.015904 -0.015936 -0.015936 -0.015936 -0.011925 -0.012046 -0.012185 -0.012210 -0.012210 -0.012210 -0.009100 -0.009195 -0.009304 -0.009323 -0.009323 -0.009323 -0.006922 -0.006995 -0.007080 -0.007096 -0.007096 -0.007096 -0.005247 -0.005304 -0.005370 -0.005382 -0.005382 -0.005382 -0.003964 -0.004008 -0.004059 -0.004069 -0.004069 -0.004069 -0.002985 -0.003019 -0.003058 -0.003066 -0.003066 -0.003066 -0.002240 -0.002266 -0.002296 -0.002302 -0.002302 -0.002302 -0.001675 -0.001695 -0.001719 -0.001723 -0.001723 -0.001723 -0.001249 -0.001264 -0.001282 -0.001285 -0.001285 -0.001285 -0.000928 -0.000939 -0.000953 -0.000955 -0.000955 -0.000955 -0.000687 -0.000696 -0.000706 -0.000708 -0.000708 -0.000708 -0.000507 -0.000513 -0.000521 -0.000523 -0.000523 -0.000523 -0.000373 -0.000378 -0.000384 -0.000385 -0.000385 -0.000385 -0.000273 -0.000277 -0.000281 -0.000282 -0.000282 -0.000282 -0.000200 -0.000202 -0.000206 -0.000206 -0.000206 -0.000206 -0.000145 -0.000147 -0.000150 -0.000150 -0.000150 -0.000150 -0.000105 -0.000107 -0.000109 -0.000109 -0.000109 -0.000109 -0.000076 -0.000077 -0.000079 -0.000079 -0.000079 -0.000079 -0.000055 -0.000056 -0.000057 -0.000057 -0.000057 -0.000057 -0.000039 -0.000040 -0.000041 -0.000041 -0.000041 -0.000041 -0.000028 -0.000029 -0.000029 -0.000029 -0.000029 -0.000029 -0.000020 -0.000020 -0.000021 -0.000021 -0.000021 -0.000021 -0.000014 -0.000015 -0.000015 -0.000015 -0.000015 -0.000015 -0.000010 -0.000010 -0.000011 -0.000011 -0.000011 -0.000011 -0.000007 -0.000007 -0.000007 -0.000007 -0.000007 -0.000007 -0.000005 -0.000005 -0.000005 -0.000005 -0.000005 -0.000005 -0.000004 -0.000004 -0.000004 -0.000004 -0.000004 -0.000004 -0.000002 -0.000003 -0.000003 -0.000003 -0.000003 -0.000003 -0.000002 -0.000002 -0.000002 -0.000002 -0.000002 -0.000002 -0.000001 -0.000001 -0.000001 -0.000001 -0.000001 -0.000001 -0.000001 -0.000001 -0.000001 -0.000001 -0.000001 -0.000001 -0.000001 -0.000001 -0.000001 -0.000001 -0.000001 -0.000001 -0.000000 -0.000000 -0.000000 -0.000000 -0.000000 -0.000000 -0.000000 -0.000000 -0.000000 -0.000000 -0.000000 -0.000000 -0.000000 -0.000000 -0.000000 -0.000000 -0.000000 -0.000000 -0.000000 -0.000000 -0.000000 -0.000000 -0.000000 -0.000000 -0.000000 -0.000000 -0.000000 -0.000000 -0.000000 -0.000000 -0.000000 -0.000000 -0.000000 -0.000000 -0.000000 -0.000000 -0.000000 -0.000000 -0.000000 -0.000000 -0.000000 -0.000000 -0.000000 -0.000000 -0.000000 -0.000000 -0.000000 -0.000000 -0.000000 -0.000000 -0.000000 -0.000000 -0.000000 -0.000000 -0.000000 -0.000000 -0.000000 -0.000000 -0.000000 -0.000000 -0.000000 -0.000000 -0.000000 -0.000000 -0.000000 -0.000000 -0.000000 -0.000000 -0.000000 -0.000000 -0.000000 -0.000000 -0.000000 -0.000000 -0.000000 -0.000000 -0.000000 -0.000000 -0.000000 -0.000000 -0.000000 -0.000000 -0.000000 -0.000000 -0.000000 -0.000000 -0.000000 -0.000000 -0.000000 -0.000000 -0.000000 -0.000000 -0.000000 -0.000000 -0.000000 -0.000000 -0.000000 -0.000000 -0.000000 0.000000 0.000000 0.000000 -0.000000 -0.000000 -0.000000 0.000000 0.000000 0.000000 -0.000000 -0.000000 -0.000000 0.000000 0.000000 0.000000 -0.000000 -0.000000 -0.000000 0.000000 0.000000 0.000000 -0.000000 -0.000000 -0.000000 0.000000 0.000000 0.000000 -0.000000 -0.000000 -0.000000 0.000000 0.000000 0.000000 -0.000000 -0.000000 -0.000000 0.000000 0.000000 0.000000 -0.000000 -0.000000 -0.000000 0.000000 0.000000 0.000000 -0.000000 -0.000000 -0.000000 0.000000 0.000000 0.000000 -0.000000 -0.000000 -0.000000 0.000000 0.000000 0.000000 -0.000000 -0.000000 -0.000000 0.000000 0.000000 0.000000 -0.000000 -0.000000 -0.000000 0.000000 0.000000 0.000000 -0.000000 -0.000000 -0.000000 0.000000 0.000000 0.000000 -0.000000 -0.000000 -0.000000 0.000000 0.000000 0.000000 -0.000000 -0.000000 -0.000000 0.000000 0.000000 0.000000 -0.000000 -0.000000 -0.000000 0.000000 0.000000 0.000000 -0.000000 -0.000000 -0.000000 0.000000 0.000000 0.000000 -0.000000 -0.000000 -0.000000 0.000000 0.000000 0.000000 -0.000000 -0.000000 -0.000000 0.000000 0.000000 0.000000 -0.000000 -0.000000 -0.000000 0.000000 0.000000 0.000000 -0.000000 -0.000000 -0.000000 0.000000 0.000000 0.000000 -0.000000 -0.000000 -0.000000 0.000000 0.000000 0.000000 -0.000000 -0.000000 -0.000000 0.000000 0.000000 0.000000 -0.000000 -0.000000 -0.000000 0.000000 0.000000 0.000000 -0.000000 -0.000000 -0.000000 0.000000 0.000000 0.000000 -0.000000 -0.000000 -0.000000 0.000000 0.000000 0.000000 -0.000000 -0.000000 -0.000000 0.000000 0.000000 0.000000 -0.000000 -0.000000 -0.000000 0.000000 0.000000 0.000000 -0.000000 -0.000000 -0.000000 0.000000 0.000000 0.000000 -0.000000 -0.000000 -0.000000 0.000000 0.000000 0.000000 -0.000000 -0.000000 -0.000000 0.000000 0.000000 0.000000 -0.000000 -0.000000 -0.000000 0.000000 0.000000 0.000000 -0.000000 -0.000000 -0.000000 0.000000 0.000000 0.000000 -0.000000 -0.000000 -0.000000 0.000000 0.000000 0.000000 -0.000000 -0.000000 -0.000000 0.000000 0.000000 0.000000 -0.000000 -0.000000 -0.000000 0.000000 0.000000 0.000000 -0.000000 -0.000000 -0.000000 0.000000 0.000000 0.000000 -0.000000 -0.000000 -0.000000 0.000000 0.000000 0.000000 -0.000000 -0.000000 -0.000000 0.000000 0.000000 0.000000 -0.000000 -0.000000 -0.000000 0.000000 0.000000 0.000000 -0.000000 -0.000000 -0.000000 0.000000 0.000000 0.000000 -0.000000 -0.000000 -0.000000 0.000000 0.000000 0.000000 -0.000000 -0.000000 -0.000000 0.000000 0.000000 0.000000 -0.000000 -0.000000 -0.000000 0.000000 0.000000 0.000000 -0.000000 -0.000000 -0.000000 0.000000 0.000000 0.000000 -0.000000 -0.000000 -0.000000 0.000000 0.000000 0.000000 -0.000000 -0.000000 -0.000000 0.000000 0.000000 0.000000 -0.000000 -0.000000 -0.000000 0.000000 0.000000 0.000000 -0.000000 -0.000000 -0.000000 0.000000 0.000000 0.000000 -0.000000 -0.000000 -0.000000 0.000000 0.000000 0.000000 -0.000000 -0.000000 -0.000000 0.000000 0.000000 0.000000 -0.000000 -0.000000 -0.000000 0.000000 0.000000 0.000000 -0.000000 -0.000000 -0.000000 0.000000 0.000000 0.000000 -0.000000 -0.000000 -0.000000 0.000000 0.000000 0.000000 -0.000000 -0.000000 -0.000000 0.000000 0.000000 0.000000 -0.000000 -0.000000 -0.000000 0.000000 0.000000 0.000000 -0.000000 -0.000000 -0.000000 0.000000 0.000000 0.000000 -0.000000 -0.000000 -0.000000 0.000000 0.000000 0.000000 -0.000000 -0.000000 -0.000000 0.000000 0.000000 0.000000 -0.000000 -0.000000 -0.000000 0.000000 0.000000 0.000000 -0.000000 -0.000000 -0.000000 0.000000 0.000000 0.000000 -0.000000 -0.000000 -0.000000 0.000000 0.000000 0.000000 -0.000000 -0.000000 -0.000000 0.000000 0.000000 0.000000 -0.000000 -0.000000 -0.000000 0.000000 0.000000 0.000000 -0.000000 -0.000000 -0.000000 0.000000 0.000000 0.000000 -0.000000 -0.000000 -0.000000 0.000000 0.000000 0.000000 -0.000000 -0.000000 -0.000000 0.000000 0.000000 0.000000 -0.000000 -0.000000 -0.000000 0.000000 0.000000 0.000000 -0.000000 -0.000000 -0.000000 0.000000 0.000000 0.000000 -0.000000 -0.000000 -0.000000 0.000000 0.000000 0.000000 -0.000000 -0.000000 -0.000000 0.000000 0.000000 0.000000 -0.000000 -0.000000 -0.000000 0.000000 0.000000 0.000000 -0.000000 -0.000000 -0.000000 0.000000 0.000000 0.000000 -0.000000 -0.000000 -0.000000 0.000000 0.000000 0.000000 -0.000000 -0.000000 -0.000000 0.000000 0.000000 0.000000 -0.000000 -0.000000 -0.000000 0.000000 0.000000 0.000000 -0.000000 -0.000000 -0.000000 0.000000 0.000000 0.000000 -0.000000 -0.000000 -0.000000 0.000000 0.000000 0.000000 -0.000000 -0.000000 -0.000000 0.000000 0.000000 0.000000 -0.000000 -0.000000 -0.000000 0.000000 0.000000 0.000000 -0.000000 -0.000000 -0.000000 0.000000 0.000000 0.000000 -0.000000 -0.000000 -0.000000 0.000000 0.000000 0.000000 -0.000000 -0.000000 -0.000000 0.000000 0.000000 0.000000 -0.000000 -0.000000 -0.000000 0.000000 0.000000 0.000000 -0.000000 -0.000000 -0.000000 0.000000 0.000000 0.000000 -0.000000 -0.000000 -0.000000 0.000000 0.000000 0.000000 -0.000000 -0.000000 -0.000000 0.000000 0.000000 0.000000 -0.000000 -0.000000 -0.000000 0.000000 0.000000 0.000000 -0.000000 -0.000000 -0.000000 0.000000 0.000000 0.000000 -0.000000 -0.000000 -0.000000 0.000000 0.000000 0.000000 -0.000000 -0.000000 -0.000000 -0.000000 -0.000000 -0.000000 -0.000000 -0.000000 -0.000000 -0.000000 -0.000000 -0.000000 -0.000000 -0.000000 -0.000000 -0.000000 -0.000000 -0.000000 0.000000 0.000000 0.000000 0.000000 0.000000 0.000000 0.000000 0.000000 0.000000 0.000000 0.000000 0.000000 0.000000 0.000000 0.000000 0.000000 0.000000 0.000000 0.000000 0.000000 0.000001 0.000001 0.000001 0.000001 0.000002 0.000002 0.000002 0.000003 0.000003 0.000003 0.000006 0.000008 0.000010 0.000010 0.000010 0.000010 0.000024 0.000029 0.000036 0.000038 0.000038 0.000038 0.000087 0.000105 0.000129 0.000134 0.000134 0.000134 0.000304 0.000361 0.000437 0.000452 0.000452 0.000452 0.001000 0.001173 0.001400 0.001444 0.001444 0.001444 0.003118 0.003609 0.004244 0.004366 0.004366 0.004366 0.009198 0.010506 0.012173 0.012490 0.012490 0.012490 0.025643 0.028902 0.032998 0.033772 0.033772 0.033772 0.067473 0.075053 0.084450 0.086211 0.086211 0.086211 0.167314 0.183721 0.203772 0.207500 0.207500 0.207500 0.390313 0.423226 0.462860 0.470164 0.470164 0.470164 0.854796 0.915696 0.987876 1.001057 1.001057 1.001057 1.752896 1.856294 1.976621 1.998362 1.998362 1.998362 3.354902 3.515163 3.697378 3.729857 3.729857 3.729857 5.967481 6.193700 6.442459 6.485929 6.485929 6.485929 9.808025 10.101233 10.406728 10.458351 10.458351 10.458351 14.771649 15.134383 15.479552 15.534359 15.534359 15.534359 20.121644 20.593784 20.988966 21.045496 21.045496 21.045496 24.228816 24.958376 25.512792 25.585039 25.585039 25.585039 24.580177 25.916649 26.934442 27.068097 27.068097 27.068097 18.287102 20.850901 22.905085 23.190299 23.190299 23.190299 3.157925 7.812539 11.723558 12.292083 12.292083 12.292083 -20.943470 -13.277619 -6.619116 -5.622411 -5.622411 -5.622411 -51.092378 -39.772101 -29.728285 -28.197894 -28.197894 -28.197894 -81.383041 -66.408204 -52.949415 -50.877169 -50.877169 -50.877169 -104.439656 -86.663306 -70.574041 -68.082937 -68.082937 -68.082937 -113.946127 -94.976078 -77.763802 -75.093637 -75.093637 -75.093637 -107.097609 -88.881278 -72.379947 -69.823401 -69.823401 -69.823401 -85.766264 -70.022956 -55.849202 -53.663969 -53.663969 -53.663969 -55.786839 -43.536566 -32.638580 -30.974525 -30.974525 -30.974525 -24.749250 -16.124856 -8.605229 -7.476117 -7.476117 -7.476117 0.581842 6.222194 10.986269 11.682144 11.682144 11.682144 16.050077 19.868987 22.929653 23.356724 23.356724 23.356724 20.318492 24.127691 26.578145 26.902197 26.902197 26.902197 21414.156411 21414.156411 21414.156411 21516.607683 23320.807017 22976.625108 20740.371712 23905.742729 23569.916081 22760.681082 21896.864150 21209.282139 22049.245287 21948.088728 20884.527979 19150.774608 18412.906465 18777.487099 18446.811078 18056.349021 16865.809387 16137.088924 14965.524097 15091.087020 14998.841795 13725.145339 14650.516495 13266.928332 15633.127388 15651.831382 13487.553621 8210.685670 9243.806721 12609.673057 12915.494122 9897.204668 10591.148619 4403.363770 4928.668152 8698.429059 3240.999004 4821.644564 3265.315331 -51.914231 9336.349013 280.552425 787.895715 1344.064038 2736.475065 -1796.770006 2092.158557 -1053.695711 715.217729 1553.939075 -2136.816905 2555.493014 -308.420643 -1737.353463 -3382.368066 -1292.030725 -270.224977 145.062523 277.151394 283.794949 242.226381 188.317109 137.661525 96.031403 64.561861 42.314001 27.546140 18.355501 13.004228 10.072352 8.504888 7.591705 6.908723 6.243553 5.522749 4.751180 3.967840 3.217818 2.537504 1.949144 1.461081 1.070753 0.768510 0.541101 0.374342 0.254864 0.171066 0.113510 0.074992 0.050533 0.037597 0.036858 0.054077 0.103783 0.215777 0.445649 0.890815 1.714133 3.179307 5.704728 10.107949 15.661029 20.199120 23.121456 23.628901 23.628901 23.628901 21102.135290 21102.135290 21102.135290 21090.171963 21501.075946 20920.443240 20226.471514 22103.130388 22054.264470 21989.223850 21345.891957 20858.282809 21088.089931 20876.234921 20033.553108 18362.295194 18086.131692 18326.136192 17615.916593 17021.923515 16176.309889 15802.036969 14849.357629 14689.217306 14604.037444 13646.136304 13741.706485 13170.985555 13552.186471 13005.926205 12156.949507 10759.629471 10584.735591 11174.183051 10512.240104 9804.606622 9326.656240 7076.924730 6399.584837 6896.487994 5009.332727 4560.261753 4105.688954 3763.367892 4603.137238 3004.439233 2492.506486 2236.641687 2201.745784 1276.697080 1443.512490 1333.055005 1415.800580 1253.677866 610.140065 921.692786 599.648320 2.738630 -365.077479 -172.137356 145.083682 305.380910 338.700467 307.705001 252.155322 193.161125 140.595782 98.119893 66.142975 43.502796 28.403103 18.935877 13.366811 10.275925 8.602521 7.626563 6.912385 6.236551 5.516535 4.750661 3.973813 3.228945 2.551687 1.964354 1.475747 1.083872 0.779590 0.550038 0.381280 0.260079 0.174883 0.116253 0.076958 0.051991 0.038768 0.037830 0.054465 0.101758 0.205577 0.411880 0.796263 1.474941 2.614146 4.426062 7.038751 10.224283 13.394902 15.526970 15.912875 15.912875 15.912875 20945.670501 20945.670501 20945.670501 20940.279435 20911.412137 20862.765643 20932.214388 21199.496659 21097.563483 20915.705984 20626.118362 20329.077375 20101.353128 19782.676482 19278.040009 18667.443271 18175.741515 17713.947782 17178.320585 16597.003798 16015.927081 15476.012109 14964.914814 14530.836303 14141.331826 13726.134438 13347.971516 13024.471456 12760.237025 12441.777851 11991.729008 11407.646174 10863.575436 10385.337731 9871.847850 9308.384945 8694.546785 7977.572709 7319.922186 6766.723753 6079.817238 5427.059201 4900.776769 4485.117505 4186.120408 3748.808168 3306.510892 2952.553619 2630.550878 2296.433802 2074.720466 1919.506089 1783.605650 1609.940174 1389.462730 1223.799034 1015.409176 775.204027 588.616371 506.586969 477.482456 445.855401 394.763099 329.917331 261.622850 197.995599 143.683644 100.405342 67.912378 44.849874 29.382096 19.603483 13.787045 10.514257 8.718724 7.669652 6.918503 6.229427 5.509592 4.749816 3.980221 3.241235 2.567548 1.981496 1.492371 1.098812 0.792259 0.560292 0.389265 0.266098 0.179302 0.119442 0.079264 0.053741 0.040267 0.039300 0.055768 0.101518 0.198909 0.385139 0.715912 1.265664 2.119621 3.349793 4.968216 6.877332 8.913127 10.445284 10.776856 10.776856 10.776856 20924.518440 20924.518440 20924.518440 20923.905848 20918.503471 20939.121916 21020.628581 21078.987479 21002.783553 20799.754662 20529.177498 20249.696442 19973.066388 19630.151981 19171.988415 18648.745203 18145.787878 17652.882239 17119.762816 16556.702114 15997.965570 15471.293408 14980.241156 14538.681454 14129.439989 13724.547841 13348.558593 13015.280521 12712.016041 12374.834469 11949.552956 11428.612635 10881.103213 10344.255848 9799.926727 9238.060997 8647.473362 8009.912316 7383.208904 6792.900759 6166.047849 5552.513840 5022.079158 4587.795021 4216.956743 3817.608313 3411.304577 3043.647635 2710.090404 2404.796477 2168.684875 1994.169306 1838.692421 1663.605979 1466.795736 1277.506001 1077.785298 871.206174 700.666887 591.358388 524.201276 466.939755 403.379129 333.375922 263.125235 198.788793 144.209026 100.804067 68.225340 45.089925 29.557395 19.723508 13.862930 10.557549 8.740034 7.677724 6.919815 6.228254 5.508374 4.749645 3.981328 3.243393 2.570353 1.984541 1.495334 1.101481 0.794528 0.562132 0.390701 0.267182 0.180100 0.120018 0.079683 0.054064 0.040552 0.039602 0.056091 0.101687 0.198221 0.381541 0.704280 1.234492 2.045565 3.192546 4.676788 6.419884 8.306400 9.739149 10.037909 10.037909 10.037909 20924.518440 20924.518440 20924.518440 20923.905848 20918.503471 20939.121916 21020.628581 21078.987479 21002.783553 20799.754662 20529.177498 20249.696442 19973.066388 19630.151981 19171.988415 18648.745203 18145.787878 17652.882239 17119.762816 16556.702114 15997.965570 15471.293408 14980.241156 14538.681454 14129.439989 13724.547841 13348.558593 13015.280521 12712.016041 12374.834469 11949.552956 11428.612635 10881.103213 10344.255848 9799.926727 9238.060997 8647.473362 8009.912316 7383.208904 6792.900759 6166.047849 5552.513840 5022.079158 4587.795021 4216.956743 3817.608313 3411.304577 3043.647635 2710.090404 2404.796477 2168.684875 1994.169306 1838.692421 1663.605979 1466.795736 1277.506001 1077.785298 871.206174 700.666887 591.358388 524.201276 466.939755 403.379129 333.375922 263.125235 198.788793 144.209026 100.804067 68.225340 45.089925 29.557395 19.723508 13.862930 10.557549 8.740034 7.677724 6.919815 6.228254 5.508374 4.749645 3.981328 3.243393 2.570353 1.984541 1.495334 1.101481 0.794528 0.562132 0.390701 0.267182 0.180100 0.120018 0.079683 0.054064 0.040552 0.039602 0.056091 0.101687 0.198221 0.381541 0.704280 1.234492 2.045565 3.192546 4.676788 6.419884 8.306400 9.739149 10.037909 10.037909 10.037909 20924.518440 20924.518440 20924.518440 20923.905848 20918.503471 20939.121916 21020.628581 21078.987479 21002.783553 20799.754662 20529.177498 20249.696442 19973.066388 19630.151981 19171.988415 18648.745203 18145.787878 17652.882239 17119.762816 16556.702114 15997.965570 15471.293408 14980.241156 14538.681454 14129.439989 13724.547841 13348.558593 13015.280521 12712.016041 12374.834469 11949.552956 11428.612635 10881.103213 10344.255848 9799.926727 9238.060997 8647.473362 8009.912316 7383.208904 6792.900759 6166.047849 5552.513840 5022.079158 4587.795021 4216.956743 3817.608313 3411.304577 3043.647635 2710.090404 2404.796477 2168.684875 1994.169306 1838.692421 1663.605979 1466.795736 1277.506001 1077.785298 871.206174 700.666887 591.358388 524.201276 466.939755 403.379129 333.375922 263.125235 198.788793 144.209026 100.804067 68.225340 45.089925 29.557395 19.723508 13.862930 10.557549 8.740034 7.677724 6.919815 6.228254 5.508374 4.749645 3.981328 3.243393 2.570353 1.984541 1.495334 1.101481 0.794528 0.562132 0.390701 0.267182 0.180100 0.120018 0.079683 0.054064 0.040552 0.039602 0.056091 0.101687 0.198221 0.381541 0.704280 1.234492 2.045565 3.192546 4.676788 6.419884 8.306400 9.739149 10.037909 10.037909 10.037909 12077.057863 12077.057863 12077.057863 12070.478167 11943.641532 11915.557896 11894.325225 11996.770190 12798.822860 12289.692427 11302.675562 10711.268387 10595.961605 9820.503019 9639.463766 9395.475369 7761.103302 7874.525053 7768.796804 7535.634581 6386.408443 6287.512628 5881.063924 4922.036045 3916.137636 4080.395169 3295.423966 1590.279474 1775.511303 2682.291056 339.149910 -2184.102277 3217.496506 3575.212097 400.264755 -2375.844216 -3019.732153 -1824.069681 757.729713 905.555283 -1482.412392 -1436.624706 -456.408190 404.071113 735.683554 -985.775539 -1668.803013 -701.055586 -252.236935 -1749.331896 -2589.501984 -2080.115164 -1755.352883 -1569.317746 -1450.248768 -1369.774159 12264.180705 12264.180705 12264.180705 12221.316843 11672.621899 11990.205650 11933.397486 14937.058490 12639.121323 10269.697471 10850.178455 12231.391150 14973.229335 12478.630742 11332.797599 12663.532372 13758.853611 11640.985557 14361.998450 15065.602907 14315.654818 13956.867191 14484.115992 12142.988874 12940.290833 15660.090563 14470.221104 11158.402447 12013.104544 12220.326888 13357.551883 12948.763998 14442.395175 13891.194850 11729.734093 13592.687995 12820.713712 13942.588275 13043.212936 12499.103284 13116.782449 13144.479057 13798.061507 12367.304110 13740.840176 13716.534577 15175.286121 13577.945956 15267.311867 14118.973447 11242.010140 13011.454168 13324.628226 2.922576 -404.600905 6.581507 12560.545180 12560.545180 12560.545180 12490.910766 11811.031921 12541.551269 11165.869471 11710.956289 13778.780892 11651.942492 12185.573727 12754.258031 14190.645021 10818.224679 9742.470353 10414.721879 12441.766742 13285.205121 13654.224391 10542.743220 13198.289111 13400.301968 9936.863214 11145.707988 10592.714121 11204.458326 11676.941287 13402.170394 11529.096062 13328.887868 13301.653053 13043.490878 13062.097890 13221.521759 13334.679289 14505.599186 14043.896904 12328.055001 13300.298388 13995.991788 13691.844867 14971.500855 11894.531433 13702.815820 14058.811329 13682.689499 13691.784549 12632.416495 13665.026255 12449.879103 14503.596378 13629.279589 5264.829847 6917.801464 -1289.980320 244.473269 12834.036292 12834.036292 12834.036292 12811.298097 12056.995760 12298.608631 13737.260737 14843.209843 10455.701326 9841.418998 10197.140867 9968.850420 10033.123517 10760.237308 12700.327311 11523.397822 14183.945873 12533.538607 10517.028954 12012.671712 12140.869877 11289.584971 11862.152748 12876.718240 14740.813951 13932.274445 11559.681916 12740.060896 13019.657726 13501.139402 11374.488890 11493.285760 13471.363906 14325.266199 14676.039768 13757.045685 15637.379849 13180.660950 12853.320928 13970.207172 13088.985292 14400.265495 12840.836233 13328.128772 14820.855587 14612.115079 14902.711559 14733.120988 15217.804016 14539.406876 10228.014474 13958.096252 -700.005053 11422.406333 705.387807 3401.530734 130