<VTKFile type="PolyData">
<PolyData>
<Piece NumberOfPoints="8632" NumberOfVerts="8632" NumberOfLines="0" NumberOfStrips="0" NumberOfPolys="0">
<PointData>
<DataArray type="Float64" Name="Pressure" format="ascii">
 10396.393385 10396.393385 10396.393385 10388.340124 10296.385965 10047.536704 9736.107521 9341.882193 8873.104764 8349.973813 7785.349566 7184.118323 6557.789567 5926.361489 5309.835653 4723.567751 4154.935044 3565.448479 2920.177592 2239.254561 1626.742757 1192.322807 948.748619 838.735474 793.422126 749.279920 650.956001 490.760952 342.501567 254.973283 170.851628 48.498349 -42.794569 -49.347541 -20.077521 -36.863272 -104.903646 -140.079164 -113.315670 -86.902938 -131.524249 -228.931034 -291.954416 -303.872689 -319.915837 -405.869103 -563.308022 -710.853054 -827.809879 -970.185886 -1145.702428 -1275.690666 -1323.039618 -1312.523170 -1270.593021 -1211.675951 -1143.655470 -1071.649874 -999.290201 -928.519512 -860.153208 -794.525419 -731.789655 -672.036691 -615.331687 -561.721528 -511.233240 -463.871308 -419.616339 -378.425381 -340.233565 -304.956581 -272.493567 -242.730123 -215.541243 -190.794066 -168.350377 -148.068842 -129.806971 -113.422821 -98.776452 -85.731154 -74.154470 -63.919020 -54.903162 -46.991485 -40.075173 -34.052238 -28.827639 -24.313306 -20.428074 -17.097546 -14.253887 -11.835567 -9.787056 -8.058492 -6.605312 -5.387872 -4.371061 -3.523911 -2.819237 -2.233334 -1.745842 -1.339921 -1.002920 -0.726081 -0.497741 -0.354845 -0.328196 -0.328196 -0.328196 10396.393385 10396.393385 10396.393385 10388.340124 10296.385965 10047.536704 9736.107521 9341.882193 8873.104764 8349.973813 7785.349566 7184.118323 6557.789567 5926.361489 5309.835653 4723.567751 4154.935044 3565.448479 2920.177592 2239.254561 1626.742757 1192.322807 948.748619 838.735474 793.422126 749.279920 650.956001 490.760952 342.501567 254.973283 170.851628 48.498349 -42.794569 -49.347541 -20.077521 -36.863272 -104.903646 -140.079164 -113.315670 -86.902938 -131.524249 -228.931034 -291.954416 -303.872689 -319.915837 -405.869103 -563.308022 -710.853054 -827.809879 -970.185886 -1145.702428 -1275.690666 -1323.039618 -1312.523170 -1270.593021 -1211.675951 -1143.655470 -1071.649874 -999.290201 -928.519512 -860.153208 -794.525419 -731.789655 -672.036691 -615.331687 -561.721528 -511.233240 -463.871308 -419.616339 -378.425381 -340.233565 -304.956581 -272.493567 -242.730123 -215.541243 -190.794066 -168.350377 -148.068842 -129.806971 -113.422821 -98.776452 -85.731154 -74.154470 -63.919020 -54.903162 -46.991485 -40.075173 -34.052238 -28.827639 -24.313306 -20.428074 -17.097546 -14.253887 -11.835567 -9.787056 -8.058492 -6.605312 -5.387872 -4.371061 -3.523911 -2.819237 -2.233334 -1.745842 -1.339921 -1.002920 -0.726081 -0.497741 -0.354845 -0.328196 -0.328196 -0.328196 10396.393385 10396.393385 10396.393385 10388.340124 10296.385965 10047.536704 9736.107521 9341.882193 8873.104764 8349.973813 7785.349566 7184.118323 6557.789567 5926.361489 5309.835653 4723.567751 4154.935044 3565.448479 2920.177592 2239.254561 1626.742757 1192.322807 948.748619 838.735474 793.422126 749.279920 650.956001 490.760952 342.501567 254.973283 170.851628 48.498349 -42.794569 -49.347541 -20.077521 -36.863272 -104.903646 -140.079164 -113.315670 -86.902938 -131.524249 -228.931034 -291.954416 -303.872689 -319.915837 -405.869103 -563.308022 -710.853054 -827.809879 -970.185886 -1145.702428 -1275.690666 -1323.039618 -1312.523170 -1270.593021 -1211.675951 -1143.655470 -1071.649874 -999.290201 -928.519512 -860.153208 -794.525419 -731.789655 -672.036691 -615.331687 -561.721528 -511.233240 -463.871308 -419.616339 -378.425381 -340.233565 -304.956581 -272.493567 -242.730123 -215.541243 -190.794066 -168.350377 -148.068842 -129.806971 -113.422821 -98.776452 -85.731154 -74.154470 -63.919020 -54.903162 -46.991485 -40.075173 -34.052238 -28.827639 -24.313306 -20.428074 -17.097546 -14.253887 -11.835567 -9.787056 -8.058492 -6.605312 -5.387872 -4.371061 -3.523911 -2.819237 -2.233334 -1.745842 -1.339921 -1.002920 -0.726081 -0.497741 -0.354845 -0.328196 -0.328196 -0.328196 10398.708868 10398.708868 10398.708868 10391.309949 10305.456033 10070.257473 9768.822801 9379.352475 8914.248872 8396.716318 7839.827481 7242.096820 6611.886109 5977.998057 5355.996722 4773.729905 4214.994217 3631.030845 2967.456215 2233.675078 1569.642485 1129.117231 907.284190 821.460698 797.327903 771.152541 674.698865 484.902787 317.232834 252.769070 184.518170 33.701197 -76.720054 -62.555892 -2.977887 -18.248351 -118.638733 -163.423924 -113.553824 -62.527504 -111.124477 -246.101503 -312.024796 -304.470340 -299.513939 -380.884183 -581.284455 -728.482858 -825.142023 -930.928722 -1134.517325 -1310.085321 -1347.541110 -1326.209054 -1278.402457 -1216.440679 -1146.369297 -1072.944773 -999.813696 -928.707089 -860.202623 -794.519039 -731.760615 -671.998250 -615.289253 -561.677438 -511.188631 -463.826846 -419.572484 -378.382491 -340.191930 -304.916436 -272.455100 -242.693478 -215.506525 -190.761344 -168.319688 -148.040198 -129.780359 -113.398208 -98.753789 -85.710377 -74.135505 -63.901784 -54.887564 -46.977430 -40.062565 -34.040976 -28.817623 -24.304438 -20.420258 -17.090688 -14.247898 -11.830362 -9.782555 -8.054619 -6.601995 -5.385046 -4.368659 -3.521861 -2.817440 -2.231620 -1.743859 -1.336981 -0.998398 -0.720671 -0.493746 -0.352051 -0.325713 -0.325713 -0.325713 10424.367288 10424.367288 10424.367288 10425.319433 10419.527342 10341.067315 10134.546052 9815.417713 9413.302008 8974.019081 8533.421041 7977.527822 7286.997918 6625.707076 5930.011554 5388.820768 4976.426811 4513.122340 3653.498200 2140.206032 715.735769 318.209385 417.905930 631.308342 851.907428 1065.999827 1086.341257 365.124545 -149.611311 252.764318 538.498239 -209.464319 -616.012052 -240.045147 295.146735 379.631348 -414.927732 -548.489650 -123.534008 359.463671 227.954564 -585.444849 -618.659191 -316.025625 15.651102 25.161736 -837.232411 -1061.239253 -660.889538 -309.709762 -1043.619806 -1703.202470 -1621.791454 -1475.648948 -1364.047628 -1271.311965 -1177.875445 -1086.126551 -1004.995814 -930.527831 -860.671033 -794.444626 -731.466015 -671.612223 -614.864299 -561.236300 -510.742468 -463.382213 -419.133962 -377.953642 -339.775647 -304.515070 -272.070524 -242.327128 -215.159445 -190.434225 -168.012911 -147.753868 -129.514350 -113.152192 -98.527270 -85.502722 -73.945967 -63.729527 -54.731686 -46.836982 -39.936566 -33.928433 -28.717541 -24.215832 -20.342165 -17.022176 -14.188071 -11.778368 -9.737589 -8.015927 -6.568871 -5.356820 -4.344676 -3.501403 -2.799539 -2.214577 -1.724061 -1.306501 -0.942289 -0.649206 -0.444407 -0.320605 -0.298770 -0.298770 -0.298770 10458.855831 10458.855831 10458.855831 10473.670715 10676.081282 10764.657499 10524.883433 10297.169495 10268.018254 9896.895142 9733.650947 9500.574278 8058.295160 8006.342480 6783.505972 6445.621309 6321.662668 6277.346960 5425.782845 1966.736976 -1373.266139 -1157.858362 -198.668617 404.933552 932.913818 1585.090365 2224.041082 128.798717 -1455.043682 436.118516 1822.396757 -818.799695 -1928.127974 -519.367294 957.472080 1239.242580 -1081.894561 -1332.466003 -130.685816 1088.573210 738.733665 -1230.690670 -1141.555647 -335.331378 492.700683 644.857230 -1163.779253 -1569.920393 -489.203416 -130.928739 -1801.337773 -2465.894025 -1961.399399 -1653.333025 -1467.115226 -1347.950470 -1234.030161 -1108.507776 -1013.145840 -933.445043 -861.533230 -794.490488 -731.182842 -671.193740 -614.389005 -560.737582 -510.236041 -462.876759 -418.635187 -377.465803 -339.302113 -304.058545 -271.633144 -241.910528 -214.764806 -190.062326 -167.664178 -147.428417 -129.212030 -112.872626 -98.269890 -85.266802 -73.730654 -63.533869 -54.554653 -46.677493 -39.793505 -33.800668 -28.603938 -24.115270 -20.253549 -16.944444 -14.120204 -11.719396 -9.686598 -7.972056 -6.531312 -5.324805 -4.317431 -3.478044 -2.778784 -2.193987 -1.697944 -1.259415 -0.822869 -0.518310 -0.367497 -0.278698 -0.262554 -0.262554 -0.262554 -0.462751 -0.333704 -0.266703 -0.257713 -0.257713 -0.257713 -0.347799 -0.276505 -0.232116 -0.226084 -0.226084 -0.226084 -0.226055 -0.202360 -0.182912 -0.180157 -0.180157 -0.180157 -0.158158 -0.149481 -0.141982 -0.140872 -0.140872 -0.140872 -0.114706 -0.111713 -0.109180 -0.108815 -0.108815 -0.108815 -0.084802 -0.083981 -0.083400 -0.083331 -0.083331 -0.083331 -0.063254 -0.063234 -0.063359 -0.063396 -0.063396 -0.063396 -0.047325 -0.047563 -0.047898 -0.047965 -0.047965 -0.047965 -0.035399 -0.035687 -0.036044 -0.036111 -0.036111 -0.036111 -0.026423 -0.026688 -0.027004 -0.027061 -0.027061 -0.027061 -0.019663 -0.019883 -0.020142 -0.020189 -0.020189 -0.020189 -0.014580 -0.014755 -0.014960 -0.014997 -0.014997 -0.014997 -0.010768 -0.010905 -0.011063 -0.011092 -0.011092 -0.011092 -0.007921 -0.008025 -0.008146 -0.008168 -0.008168 -0.008168 -0.005802 -0.005881 -0.005973 -0.005990 -0.005990 -0.005990 -0.004232 -0.004292 -0.004361 -0.004373 -0.004373 -0.004373 -0.003074 -0.003119 -0.003170 -0.003180 -0.003180 -0.003180 -0.002223 -0.002256 -0.002295 -0.002302 -0.002302 -0.002302 -0.001601 -0.001626 -0.001654 -0.001659 -0.001659 -0.001659 -0.001148 -0.001166 -0.001187 -0.001191 -0.001191 -0.001191 -0.000820 -0.000833 -0.000849 -0.000851 -0.000851 -0.000851 -0.000583 -0.000593 -0.000604 -0.000606 -0.000606 -0.000606 -0.000413 -0.000420 -0.000428 -0.000429 -0.000429 -0.000429 -0.000291 -0.000296 -0.000302 -0.000303 -0.000303 -0.000303 -0.000204 -0.000208 -0.000212 -0.000213 -0.000213 -0.000213 -0.000143 -0.000145 -0.000148 -0.000149 -0.000149 -0.000149 -0.000099 -0.000101 -0.000103 -0.000104 -0.000104 -0.000104 -0.000069 -0.000070 -0.000072 -0.000072 -0.000072 -0.000072 -0.000048 -0.000048 -0.000050 -0.000050 -0.000050 -0.000050 -0.000033 -0.000033 -0.000034 -0.000034 -0.000034 -0.000034 -0.000022 -0.000023 -0.000023 -0.000023 -0.000023 -0.000023 -0.000015 -0.000016 -0.000016 -0.000016 -0.000016 -0.000016 -0.000010 -0.000011 -0.000011 -0.000011 -0.000011 -0.000011 -0.000007 -0.000007 -0.000007 -0.000007 -0.000007 -0.000007 -0.000005 -0.000005 -0.000005 -0.000005 -0.000005 -0.000005 -0.000003 -0.000003 -0.000003 -0.000003 -0.000003 -0.000003 -0.000002 -0.000002 -0.000002 -0.000002 -0.000002 -0.000002 -0.000001 -0.000001 -0.000001 -0.000002 -0.000002 -0.000002 -0.000001 -0.000001 -0.000001 -0.000001 -0.000001 -0.000001 -0.000001 -0.000001 -0.000001 -0.000001 -0.000001 -0.000001 -0.000000 -0.000000 -0.000000 -0.000000 -0.000000 -0.000000 -0.000000 -0.000000 -0.000000 -0.000000 -0.000000 -0.000000 -0.000000 -0.000000 -0.000000 -0.000000 -0.000000 -0.000000 -0.000000 -0.000000 -0.000000 -0.000000 -0.000000 -0.000000 -0.000000 -0.000000 -0.000000 -0.000000 -0.000000 -0.000000 -0.000000 -0.000000 -0.000000 -0.000000 -0.000000 -0.000000 -0.000000 -0.000000 -0.000000 -0.000000 -0.000000 -0.000000 -0.000000 -0.000000 -0.000000 -0.000000 -0.000000 -0.000000 -0.000000 -0.000000 -0.000000 -0.000000 -0.000000 -0.000000 -0.000000 -0.000000 -0.000000 -0.000000 -0.000000 -0.000000 -0.000000 -0.000000 -0.000000 -0.000000 -0.000000 -0.000000 -0.000000 -0.000000 -0.000000 -0.000000 -0.000000 -0.000000 -0.000000 -0.000000 -0.000000 -0.000000 -0.000000 -0.000000 -0.000000 -0.000000 -0.000000 -0.000000 -0.000000 -0.000000 -0.000000 -0.000000 -0.000000 -0.000000 -0.000000 -0.000000 -0.000000 -0.000000 -0.000000 -0.000000 -0.000000 -0.000000 -0.000000 -0.000000 -0.000000 0.000000 0.000000 0.000000 -0.000000 -0.000000 -0.000000 0.000000 0.000000 0.000000 -0.000000 -0.000000 -0.000000 0.000000 0.000000 0.000000 -0.000000 -0.000000 -0.000000 0.000000 0.000000 0.000000 -0.000000 -0.000000 -0.000000 0.000000 0.000000 0.000000 -0.000000 -0.000000 -0.000000 0.000000 0.000000 0.000000 -0.000000 -0.000000 -0.000000 0.000000 0.000000 0.000000 -0.000000 -0.000000 -0.000000 0.000000 0.000000 0.000000 -0.000000 -0.000000 -0.000000 0.000000 0.000000 0.000000 -0.000000 -0.000000 -0.000000 0.000000 0.000000 0.000000 -0.000000 -0.000000 -0.000000 0.000000 0.000000 0.000000 -0.000000 -0.000000 -0.000000 0.000000 0.000000 0.000000 -0.000000 -0.000000 -0.000000 0.000000 0.000000 0.000000 -0.000000 -0.000000 -0.000000 0.000000 0.000000 0.000000 -0.000000 -0.000000 -0.000000 0.000000 0.000000 0.000000 -0.000000 -0.000000 -0.000000 0.000000 0.000000 0.000000 -0.000000 -0.000000 -0.000000 0.000000 0.000000 0.000000 -0.000000 -0.000000 -0.000000 0.000000 0.000000 0.000000 -0.000000 -0.000000 -0.000000 0.000000 0.000000 0.000000 -0.000000 -0.000000 -0.000000 0.000000 0.000000 0.000000 -0.000000 -0.000000 -0.000000 0.000000 0.000000 0.000000 -0.000000 -0.000000 -0.000000 0.000000 0.000000 0.000000 -0.000000 -0.000000 -0.000000 0.000000 0.000000 0.000000 -0.000000 -0.000000 -0.000000 0.000000 0.000000 0.000000 -0.000000 -0.000000 -0.000000 0.000000 0.000000 0.000000 -0.000000 -0.000000 -0.000000 0.000000 0.000000 0.000000 -0.000000 -0.000000 -0.000000 0.000000 0.000000 0.000000 -0.000000 -0.000000 -0.000000 0.000000 0.000000 0.000000 -0.000000 -0.000000 -0.000000 0.000000 0.000000 0.000000 -0.000000 -0.000000 -0.000000 0.000000 0.000000 0.000000 -0.000000 -0.000000 -0.000000 0.000000 0.000000 0.000000 -0.000000 -0.000000 -0.000000 0.000000 0.000000 0.000000 -0.000000 -0.000000 -0.000000 0.000000 0.000000 0.000000 -0.000000 -0.000000 -0.000000 0.000000 0.000000 0.000000 -0.000000 -0.000000 -0.000000 0.000000 0.000000 0.000000 -0.000000 -0.000000 -0.000000 0.000000 0.000000 0.000000 -0.000000 -0.000000 -0.000000 0.000000 0.000000 0.000000 -0.000000 -0.000000 -0.000000 0.000000 0.000000 0.000000 -0.000000 -0.000000 -0.000000 0.000000 0.000000 0.000000 -0.000000 -0.000000 -0.000000 0.000000 0.000000 0.000000 -0.000000 -0.000000 -0.000000 0.000000 0.000000 0.000000 -0.000000 -0.000000 -0.000000 0.000000 0.000000 0.000000 -0.000000 -0.000000 -0.000000 0.000000 0.000000 0.000000 -0.000000 -0.000000 -0.000000 0.000000 0.000000 0.000000 -0.000000 -0.000000 -0.000000 0.000000 0.000000 0.000000 -0.000000 -0.000000 -0.000000 0.000000 0.000000 0.000000 -0.000000 -0.000000 -0.000000 0.000000 0.000000 0.000000 -0.000000 -0.000000 -0.000000 0.000000 0.000000 0.000000 -0.000000 -0.000000 -0.000000 0.000000 0.000000 0.000000 -0.000000 -0.000000 -0.000000 0.000000 0.000000 0.000000 -0.000000 -0.000000 -0.000000 0.000000 0.000000 0.000000 -0.000000 -0.000000 -0.000000 0.000000 0.000000 0.000000 -0.000000 -0.000000 -0.000000 0.000000 0.000000 0.000000 -0.000000 -0.000000 -0.000000 0.000000 0.000000 0.000000 -0.000000 -0.000000 -0.000000 0.000000 0.000000 0.000000 -0.000000 -0.000000 -0.000000 0.000000 0.000000 0.000000 -0.000000 -0.000000 -0.000000 0.000000 0.000000 0.000000 -0.000000 -0.000000 -0.000000 0.000000 0.000000 0.000000 -0.000000 -0.000000 -0.000000 0.000000 0.000000 0.000000 -0.000000 -0.000000 -0.000000 0.000000 0.000000 0.000000 -0.000000 -0.000000 -0.000000 0.000000 0.000000 0.000000 -0.000000 -0.000000 -0.000000 0.000000 0.000000 0.000000 -0.000000 -0.000000 -0.000000 0.000000 0.000000 0.000000 -0.000000 -0.000000 -0.000000 0.000000 0.000000 0.000000 -0.000000 -0.000000 -0.000000 0.000000 0.000000 0.000000 -0.000000 -0.000000 -0.000000 0.000000 0.000000 0.000000 -0.000000 -0.000000 -0.000000 0.000000 0.000000 0.000000 -0.000000 -0.000000 -0.000000 0.000000 0.000000 0.000000 -0.000000 -0.000000 -0.000000 0.000000 0.000000 0.000000 -0.000000 -0.000000 -0.000000 0.000000 0.000000 0.000000 -0.000000 -0.000000 -0.000000 0.000000 0.000000 0.000000 -0.000000 -0.000000 -0.000000 0.000000 0.000000 0.000000 -0.000000 -0.000000 -0.000000 0.000000 0.000000 0.000000 -0.000000 -0.000000 -0.000000 0.000000 0.000000 0.000000 -0.000000 -0.000000 -0.000000 0.000000 0.000000 0.000000 -0.000000 -0.000000 -0.000000 0.000000 0.000000 0.000000 -0.000000 -0.000000 -0.000000 0.000000 0.000000 0.000000 -0.000000 -0.000000 -0.000000 0.000000 0.000000 0.000000 -0.000000 -0.000000 -0.000000 0.000000 0.000000 0.000000 -0.000000 -0.000000 -0.000000 0.000000 0.000000 0.000000 -0.000000 -0.000000 -0.000000 0.000000 0.000000 0.000000 -0.000000 -0.000000 -0.000000 0.000000 0.000000 0.000000 -0.000000 -0.000000 -0.000000 0.000000 0.000000 0.000000 -0.000000 -0.000000 -0.000000 0.000000 0.000000 0.000000 -0.000000 -0.000000 -0.000000 0.000000 0.000000 0.000000 -0.000000 -0.000000 -0.000000 0.000000 0.000000 0.000000 -0.000000 -0.000000 -0.000000 0.000000 0.000000 0.000000 -0.000000 -0.000000 -0.000000 0.000000 0.000000 0.000000 -0.000000 -0.000000 -0.000000 0.000000 0.000000 0.000000 -0.000000 -0.000000 -0.000000 0.000000 0.000000 0.000000 -0.000000 -0.000000 -0.000000 0.000000 0.000000 0.000000 -0.000000 -0.000000 -0.000000 0.000000 0.000000 0.000000 -0.000000 -0.000000 -0.000000 0.000000 0.000000 0.000000 -0.000000 -0.000000 -0.000000 0.000000 0.000000 0.000000 -0.000000 -0.000000 -0.000000 0.000000 0.000000 0.000000 -0.000000 -0.000000 -0.000000 0.000000 0.000000 0.000000 -0.000000 -0.000000 -0.000000 0.000000 0.000000 0.000000 -0.000000 -0.000000 -0.000000 0.000000 0.000000 0.000000 -0.000000 -0.000000 -0.000000 0.000000 0.000000 0.000000 -0.000000 -0.000000 -0.000000 0.000000 0.000000 0.000000 -0.000000 -0.000000 -0.000000 0.000000 0.000000 0.000000 -0.000000 -0.000000 -0.000000 0.000000 0.000000 0.000000 -0.000000 -0.000000 -0.000000 -0.000000 -0.000000 -0.000000 -0.000000 -0.000000 -0.000000 -0.000000 -0.000000 -0.000000 -0.000000 -0.000000 -0.000000 -0.000000 -0.000000 -0.000000 -0.000000 -0.000000 -0.000000 -0.000000 -0.000000 -0.000000 -0.000000 -0.000000 -0.000000 -0.000000 -0.000000 -0.000000 -0.000000 -0.000000 -0.000000 -0.000000 -0.000000 -0.000000 -0.000000 -0.000000 -0.000000 -0.000000 -0.000000 -0.000000 -0.000000 -0.000000 -0.000000 -0.000000 -0.000000 -0.000000 -0.000000 -0.000000 -0.000000 -0.000000 -0.000000 -0.000000 -0.000000 -0.000000 -0.000000 -0.000000 -0.000000 -0.000000 -0.000000 -0.000000 -0.000000 -0.000000 -0.000000 -0.000000 -0.000000 -0.000000 -0.000000 -0.000000 -0.000000 -0.000000 -0.000000 -0.000000 -0.000000 -0.000000 -0.000000 -0.000000 -0.000000 -0.000000 -0.000000 -0.000000 -0.000000 -0.000000 -0.000000 -0.000000 -0.000000 -0.000000 -0.000000 -0.000000 -0.000000 -0.000000 -0.000000 -0.000000 -0.000000 -0.000000 -0.000000 -0.000000 -0.000000 -0.000000 -0.000000 -0.000000 -0.000000 -0.000000 -0.000000 -0.000000 -0.000000 -0.000000 -0.000000 -0.000000 -0.000000 -0.000000 -0.000000 -0.000000 -0.000000 -0.000000 -0.000000 -0.000000 -0.000000 -0.000000 -0.000000 -0.000000 -0.000000 -0.000000 -0.000000 -0.000000 -0.000000 -0.000000 -0.000000 -0.000000 -0.000000 -0.000000 -0.000000 -0.000000 -0.000000 -0.000000 -0.000000 -0.000000 -0.000000 -0.000000 -0.000000 -0.000000 -0.000000 -0.000000 -0.000000 -0.000000 -0.000000 -0.000000 -0.000000 -0.000000 -0.000000 -0.000000 -0.000000 -0.000000 -0.000000 -0.000000 -0.000000 -0.000000 -0.000000 -0.000000 -0.000000 -0.000000 -0.000000 -0.000000 -0.000000 -0.000000 -0.000000 -0.000000 -0.000000 -0.000000 -0.000000 -0.000000 -0.000000 -0.000000 -0.000000 -0.000000 -0.000000 -0.000000 -0.000000 -0.000000 -0.000000 -0.000000 -0.000000 -0.000000 -0.000000 -0.000000 -0.000000 -0.000000 -0.000000 -0.000000 -0.000000 -0.000000 -0.000000 -0.000000 -0.000000 -0.000000 -0.000000 -0.000000 -0.000000 -0.000000 -0.000000 -0.000000 -0.000000 -0.000000 -0.000000 -0.000000 -0.000000 -0.000000 -0.000000 -0.000000 -0.000000 -0.000000 -0.000000 -0.000000 -0.000000 -0.000000 -0.000001 -0.000001 -0.000001 -0.000001 -0.000001 -0.000001 -0.000001 -0.000001 -0.000001 -0.000001 -0.000001 -0.000001 -0.000001 -0.000001 -0.000001 -0.000001 -0.000001 -0.000001 -0.000002 -0.000002 -0.000002 -0.000002 -0.000002 -0.000002 -0.000003 -0.000003 -0.000002 -0.000002 -0.000002 -0.000002 -0.000006 -0.000004 -0.000003 -0.000003 -0.000003 -0.000003 19228.803113 19228.803113 19228.803113 19246.925078 20224.683889 22756.377982 23165.880400 23485.090727 26347.437706 23303.461630 24051.713719 26407.698108 26491.618537 23609.501528 20532.618958 22095.751681 21774.680918 18166.104319 18346.073936 16570.301055 16487.379714 16442.779618 17671.077219 14361.085071 18424.310440 16510.609994 16961.591652 15219.899526 11155.958580 14815.587667 19034.465547 17446.592849 1990.510101 15256.216602 6857.850324 3049.866391 6278.773119 5736.203964 -3658.377327 7172.577009 13869.553644 4021.405058 6053.998881 19577.017642 15203.189683 26842.508845 -10098.506885 10323.793691 7291.665535 15839.873110 20007.549466 -10339.081821 13787.916896 41731.150428 3644.699195 -4719.029943 977.516123 -1502.035554 -2795.563736 -2686.417712 -2246.443231 -1707.842360 -1547.566107 58.900230 765.122832 59.009761 8.961584 2.928433 1.895698 1.416098 1.069997 0.804876 0.601681 0.446811 0.329506 0.241229 0.175242 0.126260 0.090166 0.063773 0.044631 0.030868 0.021064 0.014152 0.009334 0.006017 0.003767 0.002266 0.001285 0.000660 0.000275 0.000049 -0.000074 -0.000133 -0.000153 -0.000151 -0.000137 -0.000118 -0.000098 -0.000080 -0.000063 -0.000049 -0.000037 -0.000027 -0.000018 -0.000011 -0.000006 -0.000004 -0.000004 -0.000004 -0.000004 17992.540556 17992.540556 17992.540556 17976.842793 18648.889089 21569.249949 22719.789421 22230.954160 23723.084480 21494.367507 24666.559025 26625.025558 23512.319592 21314.447326 20353.099127 19898.957292 19473.116168 17326.151793 16119.983076 14542.306311 14555.946204 14801.384791 15579.514840 13634.905187 14566.650584 14265.580085 13512.865145 12397.980954 10713.777314 10996.948266 11281.598144 11476.198069 8275.155819 10858.663469 10663.678846 9090.685139 7856.669677 5244.792066 5644.357326 8568.392090 7891.940661 3099.088595 5103.538643 12635.907538 10171.552508 7529.391721 2730.904103 5131.585782 4715.273486 4538.609343 1318.416321 943.070086 5848.041546 6066.208743 696.060573 -200.386977 -378.733031 -1000.164201 -1280.051260 -1136.448460 -806.573246 -391.568643 49.669715 277.900844 151.797852 31.041211 6.384013 2.752050 1.900030 1.429714 1.081437 0.813912 0.608748 0.452303 0.333748 0.244485 0.177725 0.128141 0.091581 0.064830 0.045414 0.031444 0.021485 0.014457 0.009552 0.006172 0.003876 0.002341 0.001337 0.000695 0.000298 0.000064 -0.000065 -0.000128 -0.000150 -0.000149 -0.000136 -0.000118 -0.000099 -0.000080 -0.000063 -0.000049 -0.000037 -0.000027 -0.000019 -0.000013 -0.000008 -0.000005 -0.000004 -0.000004 -0.000004 17356.862468 17356.862468 17356.862468 17374.243761 17638.803265 18666.429767 19472.002417 20103.473195 20704.738073 20579.891417 21141.422211 21299.279849 20616.566880 20043.449964 19625.440691 19156.336433 18583.029263 17732.734269 16872.582048 16090.950733 15541.560451 15124.637693 14702.028503 14138.243643 13678.085592 13218.132155 12728.754248 12215.553386 11733.801675 11313.517131 10865.387578 10400.218795 9832.345987 9562.864389 9387.212655 9075.051625 8778.403232 8482.088947 8228.549256 7850.225531 6899.068092 5884.113553 5436.516992 4869.585219 3996.884556 3253.529591 2727.988605 2410.710782 1951.795890 1379.437049 868.613231 906.693702 1109.813999 745.830350 298.549112 132.053282 39.149869 -35.967317 -30.627920 29.786197 98.806069 143.089347 141.687727 96.125660 39.640186 11.961290 4.394563 2.615776 1.909720 1.445785 1.094650 0.824332 0.616899 0.458640 0.338644 0.248244 0.180592 0.130314 0.093217 0.066052 0.046321 0.032111 0.021972 0.014809 0.009805 0.006352 0.004002 0.002429 0.001397 0.000735 0.000325 0.000081 -0.000054 -0.000121 -0.000146 -0.000147 -0.000136 -0.000118 -0.000099 -0.000080 -0.000064 -0.000050 -0.000038 -0.000028 -0.000020 -0.000014 -0.000009 -0.000005 -0.000005 -0.000005 -0.000005 17272.295892 17272.295892 17272.295892 17299.531941 17598.668232 18372.652724 19176.911811 19897.135748 20381.869527 20536.641690 20590.963083 20543.393330 20267.791597 19854.979776 19428.768135 18993.012709 18431.320918 17691.911012 16928.685330 16223.895813 15620.650166 15110.562462 14613.602896 14078.390909 13583.260868 13115.081159 12665.117100 12233.143913 11811.770311 11374.368705 10891.184573 10391.395391 9884.080581 9494.682956 9220.854275 8992.934777 8814.641746 8623.165145 8321.664796 7776.592178 6941.082831 6055.435965 5300.634753 4517.681521 3746.746923 3121.824163 2605.650019 2142.476574 1653.073013 1167.184874 846.599594 753.170880 665.677829 441.591193 252.350672 166.995154 127.375719 121.551679 150.418533 188.225967 204.747312 184.510251 132.149789 70.871161 28.081011 9.577840 4.129270 2.598246 1.912054 1.448727 1.097032 0.826208 0.618366 0.459781 0.339526 0.248922 0.181109 0.130706 0.093511 0.066273 0.046485 0.032232 0.022060 0.014873 0.009851 0.006384 0.004025 0.002445 0.001408 0.000743 0.000330 0.000084 -0.000052 -0.000120 -0.000146 -0.000147 -0.000135 -0.000118 -0.000099 -0.000080 -0.000064 -0.000050 -0.000038 -0.000028 -0.000020 -0.000014 -0.000009 -0.000006 -0.000005 -0.000005 -0.000005 17272.295892 17272.295892 17272.295892 17299.531941 17598.668232 18372.652724 19176.911811 19897.135748 20381.869527 20536.641690 20590.963083 20543.393330 20267.791597 19854.979776 19428.768135 18993.012709 18431.320918 17691.911012 16928.685330 16223.895813 15620.650166 15110.562462 14613.602896 14078.390909 13583.260868 13115.081159 12665.117100 12233.143913 11811.770311 11374.368705 10891.184573 10391.395391 9884.080581 9494.682956 9220.854275 8992.934777 8814.641746 8623.165145 8321.664796 7776.592178 6941.082831 6055.435965 5300.634753 4517.681521 3746.746923 3121.824163 2605.650019 2142.476574 1653.073013 1167.184874 846.599594 753.170880 665.677829 441.591193 252.350672 166.995154 127.375719 121.551679 150.418533 188.225967 204.747312 184.510251 132.149789 70.871161 28.081011 9.577840 4.129270 2.598246 1.912054 1.448727 1.097032 0.826208 0.618366 0.459781 0.339526 0.248922 0.181109 0.130706 0.093511 0.066273 0.046485 0.032232 0.022060 0.014873 0.009851 0.006384 0.004025 0.002445 0.001408 0.000743 0.000330 0.000084 -0.000052 -0.000120 -0.000146 -0.000147 -0.000135 -0.000118 -0.000099 -0.000080 -0.000064 -0.000050 -0.000038 -0.000028 -0.000020 -0.000014 -0.000009 -0.000006 -0.000005 -0.000005 -0.000005 17272.295892 17272.295892 17272.295892 17299.531941 17598.668232 18372.652724 19176.911811 19897.135748 20381.869527 20536.641690 20590.963083 20543.393330 20267.791597 19854.979776 19428.768135 18993.012709 18431.320918 17691.911012 16928.685330 16223.895813 15620.650166 15110.562462 14613.602896 14078.390909 13583.260868 13115.081159 12665.117100 12233.143913 11811.770311 11374.368705 10891.184573 10391.395391 9884.080581 9494.682956 9220.854275 8992.934777 8814.641746 8623.165145 8321.664796 7776.592178 6941.082831 6055.435965 5300.634753 4517.681521 3746.746923 3121.824163 2605.650019 2142.476574 1653.073013 1167.184874 846.599594 753.170880 665.677829 441.591193 252.350672 166.995154 127.375719 121.551679 150.418533 188.225967 204.747312 184.510251 132.149789 70.871161 28.081011 9.577840 4.129270 2.598246 1.912054 1.448727 1.097032 0.826208 0.618366 0.459781 0.339526 0.248922 0.181109 0.130706 0.093511 0.066273 0.046485 0.032232 0.022060 0.014873 0.009851 0.006384 0.004025 0.002445 0.001408 0.000743 0.000330 0.000084 -0.000052 -0.000120 -0.000146 -0.000147 -0.000135 -0.000118 -0.000099 -0.000080 -0.000064 -0.000050 -0.000038 -0.000028 -0.000020 -0.000014 -0.000009 -0.000006 -0.000005 -0.000005 -0.000005 10462.046211 10462.046211 10462.046211 10478.868915 10787.244546 10949.275138 10633.109626 10381.077403 10438.592876 10023.104411 9848.957783 9714.901632 8081.798447 8198.333462 6831.904805 6594.710636 6423.595989 6708.698073 6227.362520 2433.177995 -1690.112238 -1382.180931 -247.173704 388.067550 939.730437 1661.217858 2465.243951 114.141933 -1706.230738 482.610530 2085.147939 -925.074334 -2184.586193 -563.664417 1047.495521 1346.032456 -1175.647533 -1437.538603 -133.005514 1159.439440 782.152977 -1295.369758 -1191.911647 -337.266283 528.042229 687.866793 -1178.800948 -1601.975446 -509.784794 -303.176795 -2065.066610 -2576.984155 -1988.227340 -1666.272368 -1474.757764 -1354.918132 10460.750702 10460.750702 10460.750702 10504.879003 11220.422473 11996.626612 11975.482868 13493.615591 13606.482818 8475.626005 10044.624478 8731.985852 13145.205607 11654.670308 12696.624116 11311.619220 10960.566287 8297.882620 11975.593592 12235.735133 12683.472358 11505.381632 13010.843434 9244.115001 10312.481798 13260.260113 11303.059866 9204.882801 9031.992798 9305.205003 12374.069200 10791.591855 10623.588831 11927.112109 11077.107080 11228.630878 11463.004676 11330.261560 12624.263237 10850.228081 11445.957147 10301.209346 11174.077313 10710.443049 10126.261273 11899.956197 10742.617131 12006.543729 11601.765265 11856.289431 11196.104254 11158.352701 11355.319513 112.958951 -572.245788 339.316742 10421.945850 10421.945850 10421.945850 10433.453785 10699.914610 10774.511125 10609.842191 9885.365278 11540.568469 10119.111513 8596.076552 11080.665669 12611.266925 11848.445030 6439.643267 9365.916262 10775.610593 10658.778676 13372.660739 7754.900711 11275.021458 10634.615908 9512.414720 8091.891197 9322.113603 9732.541710 8661.388719 10856.085896 10235.231630 10570.458425 10333.349134 10790.694492 11129.399067 10307.676538 12168.057000 11565.543025 11739.070454 11811.897824 10197.614900 11310.101339 11434.942874 10754.629197 11946.474721 9896.180285 10135.954369 10760.870460 11608.998489 11870.653145 11857.151160 10803.369305 11659.340836 12070.287258 2465.124791 5734.775327 70.265852 126.084689 10389.088705 10389.088705 10389.088705 10415.447509 10791.059927 11222.801976 13181.205631 13588.553562 10722.409280 9497.143926 10489.835516 10177.820812 10060.636154 8745.420237 10156.423470 8928.219687 8126.229947 11219.676228 8512.397645 10590.272856 10262.784546 9354.351689 9765.849687 10757.783145 11117.700893 9909.923234 11582.117307 10226.232536 9472.262499 9652.495369 8079.614742 9646.238024 8861.729771 10870.525879 10281.837909 10121.994954 9462.908253 10753.297215 10742.815234 11987.446227 12949.564375 9941.648561 12268.573935 10796.100974 12010.154218 12736.820234 10206.483683 9837.440294 12078.909315 11159.755867 7287.546062 12185.959722 4370.503989 8233.971028 -483.591683 150.394005 10386.787668 10386.787668 10386.787668 10375.066170 10446.606643 11177.552380 12919.859662 12446.070021 10069.718542 13400.424998 8