<VTKFile type="PolyData">
<PolyData>
<Piece NumberOfPoints="8632" NumberOfVerts="8632" NumberOfLines="0" NumberOfStrips="0" NumberOfPolys="0">
<PointData>
<DataArray type="Float64" Name="Pressure" format="ascii">
 13114.786972 13114.786972 13114.786972 13099.718874 12924.473367 12454.326834 11924.789715 11358.999851 10766.992574 10150.792000 9509.616144 8831.540834 8136.062721 7442.492687 6739.901477 6014.545587 5255.977815 4455.550809 3654.196090 2945.051164 2386.428827 1919.253051 1438.660450 980.861667 669.592811 526.853277 489.033441 477.644893 426.413895 324.333094 246.381862 240.522719 247.231018 193.486982 108.159759 71.989892 61.906807 5.977946 -68.836740 -83.179061 -57.010164 -72.629087 -146.091543 -193.326609 -176.328000 -149.393217 -194.706174 -336.312761 -497.010957 -638.222700 -805.174249 -996.220455 -1130.204860 -1177.447068 -1163.045872 -1113.055887 -1043.928071 -966.315377 -887.085382 -809.837240 -736.133979 -666.603051 -601.462676 -540.751063 -484.420024 -432.373046 -384.481590 -340.593301 -300.537388 -264.129024 -231.173287 -201.468685 -174.810230 -150.992031 -129.809411 -111.060627 -94.548252 -80.080327 -67.471345 -56.543117 -47.125565 -39.057433 -32.186921 -26.372211 -21.481874 -17.395128 -14.001940 -11.202960 -8.909299 -7.042154 -5.532306 -4.319516 -3.351835 -2.584876 -1.981047 -1.508798 -1.141879 -0.858630 -0.641334 -0.475604 -0.349853 -0.254813 -0.183133 -0.129072 -0.088279 -0.057540 -0.033912 -0.019741 -0.017146 -0.017146 -0.017146 13114.786972 13114.786972 13114.786972 13099.718874 12924.473367 12454.326834 11924.789715 11358.999851 10766.992574 10150.792000 9509.616144 8831.540834 8136.062721 7442.492687 6739.901477 6014.545587 5255.977815 4455.550809 3654.196090 2945.051164 2386.428827 1919.253051 1438.660450 980.861667 669.592811 526.853277 489.033441 477.644893 426.413895 324.333094 246.381862 240.522719 247.231018 193.486982 108.159759 71.989892 61.906807 5.977946 -68.836740 -83.179061 -57.010164 -72.629087 -146.091543 -193.326609 -176.328000 -149.393217 -194.706174 -336.312761 -497.010957 -638.222700 -805.174249 -996.220455 -1130.204860 -1177.447068 -1163.045872 -1113.055887 -1043.928071 -966.315377 -887.085382 -809.837240 -736.133979 -666.603051 -601.462676 -540.751063 -484.420024 -432.373046 -384.481590 -340.593301 -300.537388 -264.129024 -231.173287 -201.468685 -174.810230 -150.992031 -129.809411 -111.060627 -94.548252 -80.080327 -67.471345 -56.543117 -47.125565 -39.057433 -32.186921 -26.372211 -21.481874 -17.395128 -14.001940 -11.202960 -8.909299 -7.042154 -5.532306 -4.319516 -3.351835 -2.584876 -1.981047 -1.508798 -1.141879 -0.858630 -0.641334 -0.475604 -0.349853 -0.254813 -0.183133 -0.129072 -0.088279 -0.057540 -0.033912 -0.019741 -0.017146 -0.017146 -0.017146 13114.786972 13114.786972 13114.786972 13099.718874 12924.473367 12454.326834 11924.789715 11358.999851 10766.992574 10150.792000 9509.616144 8831.540834 8136.062721 7442.492687 6739.901477 6014.545587 5255.977815 4455.550809 3654.196090 2945.051164 2386.428827 1919.253051 1438.660450 980.861667 669.592811 526.853277 489.033441 477.644893 426.413895 324.333094 246.381862 240.522719 247.231018 193.486982 108.159759 71.989892 61.906807 5.977946 -68.836740 -83.179061 -57.010164 -72.629087 -146.091543 -193.326609 -176.328000 -149.393217 -194.706174 -336.312761 -497.010957 -638.222700 -805.174249 -996.220455 -1130.204860 -1177.447068 -1163.045872 -1113.055887 -1043.928071 -966.315377 -887.085382 -809.837240 -736.133979 -666.603051 -601.462676 -540.751063 -484.420024 -432.373046 -384.481590 -340.593301 -300.537388 -264.129024 -231.173287 -201.468685 -174.810230 -150.992031 -129.809411 -111.060627 -94.548252 -80.080327 -67.471345 -56.543117 -47.125565 -39.057433 -32.186921 -26.372211 -21.481874 -17.395128 -14.001940 -11.202960 -8.909299 -7.042154 -5.532306 -4.319516 -3.351835 -2.584876 -1.981047 -1.508798 -1.141879 -0.858630 -0.641334 -0.475604 -0.349853 -0.254813 -0.183133 -0.129072 -0.088279 -0.057540 -0.033912 -0.019741 -0.017146 -0.017146 -0.017146 13110.670046 13110.670046 13110.670046 13096.024022 12919.430440 12436.626062 11898.732175 11340.104794 10756.448011 10152.784697 9523.733012 8830.303094 8120.400960 7423.832259 6715.284620 5984.949075 5223.427626 4399.554235 3556.229712 2824.843234 2293.766665 1874.626077 1384.532668 888.678348 584.623771 475.731431 472.265752 488.293396 443.616134 314.078050 218.744958 235.816868 269.340715 202.825761 84.729585 58.889877 77.010179 10.489897 -94.092145 -99.144713 -42.459649 -50.698140 -158.652339 -217.250594 -179.883590 -124.721807 -153.306509 -333.316112 -506.839158 -634.722379 -785.086683 -1014.722729 -1166.585237 -1201.689403 -1176.869230 -1121.201197 -1048.360936 -968.381103 -887.917090 -810.136406 -736.214538 -666.596074 -601.421423 -540.697095 -484.362152 -432.314964 -384.424924 -340.538817 -300.485478 -264.079902 -231.127066 -201.425415 -174.769920 -150.954656 -129.774922 -111.028957 -94.519318 -80.054035 -67.447586 -56.521775 -47.106512 -39.040534 -32.172032 -26.359183 -21.470556 -17.385367 -13.993583 -11.195859 -8.903310 -7.037141 -5.528142 -4.316082 -3.349026 -2.582595 -1.979209 -1.507329 -1.140712 -0.857711 -0.640615 -0.475045 -0.349416 -0.254459 -0.182813 -0.128706 -0.087800 -0.057015 -0.033562 -0.019528 -0.016969 -0.016969 -0.016969 13057.820452 13057.820452 13057.820452 13041.348363 12776.395168 12015.349406 11375.976737 11040.497976 10616.885528 10297.549896 9931.404792 8925.656838 8012.960597 7312.917334 6505.632142 5689.705907 4946.971519 3821.955549 2385.194047 1330.609463 1210.669172 1595.023781 843.643587 -356.034281 -446.308254 -104.063561 301.299336 660.606295 801.490113 134.833080 -271.103857 182.332017 672.114467 402.598005 -387.379782 -148.082426 429.359524 156.418694 -590.633857 -337.603735 215.358181 392.829868 -416.135740 -620.633316 -234.292310 227.433270 440.784142 -375.955237 -765.288827 -468.582098 -406.364888 -1246.948936 -1620.771490 -1469.516239 -1328.914338 -1213.646456 -1098.586704 -989.232905 -896.120156 -813.037186 -736.978480 -666.509041 -601.001986 -540.154708 -483.782420 -431.733820 -383.858209 -339.994042 -299.966505 -263.588829 -230.665013 -200.992885 -174.366983 -150.581065 -129.430192 -110.712413 -94.230134 -79.791256 -67.210141 -56.308488 -46.916110 -38.871659 -32.023254 -26.229017 -21.357481 -17.287850 -13.910103 -11.124927 -8.843493 -6.987077 -5.486559 -4.281805 -3.320985 -2.559829 -1.960866 -1.492661 -1.129072 -0.848543 -0.633444 -0.469464 -0.345058 -0.250944 -0.179624 -0.124943 -0.081885 -0.050070 -0.029242 -0.017162 -0.015068 -0.015068 -0.015068 12968.130951 12968.130951 12968.130951 12952.447216 12283.227598 10150.591172 9760.280165 10741.286383 10394.882763 11417.485314 11834.759535 8948.633292 8199.079351 7971.988822 6521.953085 5533.128536 5100.888159 3378.987957 494.608370 -1287.999153 -405.314153 2386.359949 379.471305 -2891.124864 -1958.105791 -811.628275 112.829123 1066.681901 1788.435762 -187.660849 -1410.761696 56.502453 1847.541235 1027.167445 -1786.501909 -720.023956 1393.945885 509.427994 -1737.347251 -865.966410 740.601430 1199.428161 -964.008808 -1368.897854 -323.277675 729.398959 1183.318607 -618.057063 -1255.041088 -246.228485 -152.637117 -1896.583579 -2312.540231 -1791.116843 -1511.659209 -1340.131628 -1185.201912 -1023.913214 -908.932873 -817.660027 -738.365780 -666.615900 -600.606917 -539.570464 -483.136034 -431.078013 -383.215735 -339.375337 -299.376713 -263.030630 -230.139791 -200.501246 -173.909016 -150.156488 -129.038448 -110.352732 -93.901574 -79.492728 -66.940428 -56.066251 -46.699902 -38.679933 -31.854381 -26.081306 -21.229200 -17.177253 -13.815455 -11.044534 -8.775722 -6.930379 -5.439484 -4.243018 -3.289269 -2.534091 -1.940138 -1.476094 -1.115931 -0.838197 -0.625352 -0.463159 -0.340108 -0.246872 -0.175693 -0.119483 -0.069622 -0.037507 -0.022569 -0.014118 -0.012603 -0.012603 -0.012603 -0.032030 -0.019448 -0.013123 -0.012285 -0.012285 -0.012285 -0.021693 -0.014954 -0.010844 -0.010291 -0.010291 -0.010291 -0.011715 -0.009565 -0.007809 -0.007560 -0.007560 -0.007560 -0.006919 -0.006152 -0.005486 -0.005387 -0.005387 -0.005387 -0.004291 -0.004025 -0.003796 -0.003762 -0.003762 -0.003762 -0.002745 -0.002663 -0.002599 -0.002590 -0.002590 -0.002590 -0.001788 -0.001771 -0.001764 -0.001764 -0.001764 -0.001764 -0.001174 -0.001179 -0.001189 -0.001191 -0.001191 -0.001191 -0.000774 -0.000783 -0.000796 -0.000798 -0.000798 -0.000798 -0.000509 -0.000518 -0.000529 -0.000531 -0.000531 -0.000531 -0.000334 -0.000341 -0.000350 -0.000351 -0.000351 -0.000351 -0.000219 -0.000224 -0.000230 -0.000231 -0.000231 -0.000231 -0.000142 -0.000146 -0.000150 -0.000151 -0.000151 -0.000151 -0.000092 -0.000095 -0.000097 -0.000098 -0.000098 -0.000098 -0.000059 -0.000061 -0.000063 -0.000063 -0.000063 -0.000063 -0.000038 -0.000039 -0.000040 -0.000041 -0.000041 -0.000041 -0.000024 -0.000025 -0.000026 -0.000026 -0.000026 -0.000026 -0.000015 -0.000016 -0.000016 -0.000016 -0.000016 -0.000016 -0.000010 -0.000010 -0.000010 -0.000010 -0.000010 -0.000010 -0.000006 -0.000006 -0.000006 -0.000006 -0.000006 -0.000006 -0.000004 -0.000004 -0.000004 -0.000004 -0.000004 -0.000004 -0.000002 -0.000002 -0.000003 -0.000003 -0.000003 -0.000003 -0.000001 -0.000001 -0.000002 -0.000002 -0.000002 -0.000002 -0.000001 -0.000001 -0.000001 -0.000001 -0.000001 -0.000001 -0.000001 -0.000001 -0.000001 -0.000001 -0.000001 -0.000001 -0.000000 -0.000000 -0.000000 -0.000000 -0.000000 -0.000000 -0.000000 -0.000000 -0.000000 -0.000000 -0.000000 -0.000000 -0.000000 -0.000000 -0.000000 -0.000000 -0.000000 -0.000000 -0.000000 -0.000000 -0.000000 -0.000000 -0.000000 -0.000000 -0.000000 -0.000000 -0.000000 -0.000000 -0.000000 -0.000000 -0.000000 -0.000000 -0.000000 -0.000000 -0.000000 -0.000000 -0.000000 -0.000000 -0.000000 -0.000000 -0.000000 -0.000000 -0.000000 -0.000000 -0.000000 -0.000000 -0.000000 -0.000000 -0.000000 -0.000000 -0.000000 -0.000000 -0.000000 -0.000000 -0.000000 -0.000000 -0.000000 -0.000000 -0.000000 -0.000000 -0.000000 -0.000000 -0.000000 -0.000000 -0.000000 -0.000000 -0.000000 -0.000000 -0.000000 -0.000000 -0.000000 -0.000000 -0.000000 -0.000000 -0.000000 -0.000000 -0.000000 -0.000000 -0.000000 -0.000000 -0.000000 -0.000000 -0.000000 -0.000000 -0.000000 -0.000000 -0.000000 -0.000000 -0.000000 -0.000000 -0.000000 -0.000000 -0.000000 -0.000000 -0.000000 -0.000000 -0.000000 -0.000000 -0.000000 -0.000000 -0.000000 -0.000000 -0.000000 -0.000000 -0.000000 -0.000000 -0.000000 -0.000000 -0.000000 -0.000000 -0.000000 -0.000000 -0.000000 -0.000000 -0.000000 -0.000000 -0.000000 -0.000000 -0.000000 -0.000000 -0.000000 -0.000000 -0.000000 -0.000000 -0.000000 -0.000000 -0.000000 -0.000000 -0.000000 -0.000000 -0.000000 -0.000000 -0.000000 -0.000000 -0.000000 -0.000000 -0.000000 -0.000000 -0.000000 -0.000000 -0.000000 -0.000000 -0.000000 -0.000000 -0.000000 -0.000000 -0.000000 -0.000000 -0.000000 -0.000000 -0.000000 -0.000000 -0.000000 0.000000 0.000000 0.000000 -0.000000 -0.000000 -0.000000 0.000000 0.000000 0.000000 -0.000000 -0.000000 -0.000000 0.000000 0.000000 0.000000 -0.000000 -0.000000 -0.000000 0.000000 0.000000 0.000000 -0.000000 -0.000000 -0.000000 0.000000 0.000000 0.000000 -0.000000 -0.000000 -0.000000 0.000000 0.000000 0.000000 -0.000000 -0.000000 -0.000000 0.000000 0.000000 0.000000 -0.000000 -0.000000 -0.000000 0.000000 0.000000 0.000000 -0.000000 -0.000000 -0.000000 0.000000 0.000000 0.000000 -0.000000 -0.000000 -0.000000 0.000000 0.000000 0.000000 -0.000000 -0.000000 -0.000000 0.000000 0.000000 0.000000 -0.000000 -0.000000 -0.000000 0.000000 0.000000 0.000000 -0.000000 -0.000000 -0.000000 0.000000 0.000000 0.000000 -0.000000 -0.000000 -0.000000 0.000000 0.000000 0.000000 -0.000000 -0.000000 -0.000000 0.000000 0.000000 0.000000 -0.000000 -0.000000 -0.000000 0.000000 0.000000 0.000000 -0.000000 -0.000000 -0.000000 0.000000 0.000000 0.000000 -0.000000 -0.000000 -0.000000 0.000000 0.000000 0.000000 -0.000000 -0.000000 -0.000000 0.000000 0.000000 0.000000 -0.000000 -0.000000 -0.000000 0.000000 0.000000 0.000000 -0.000000 -0.000000 -0.000000 0.000000 0.000000 0.000000 -0.000000 -0.000000 -0.000000 0.000000 0.000000 0.000000 -0.000000 -0.000000 -0.000000 0.000000 0.000000 0.000000 -0.000000 -0.000000 -0.000000 0.000000 0.000000 0.000000 -0.000000 -0.000000 -0.000000 0.000000 0.000000 0.000000 -0.000000 -0.000000 -0.000000 0.000000 0.000000 0.000000 -0.000000 -0.000000 -0.000000 0.000000 0.000000 0.000000 -0.000000 -0.000000 -0.000000 0.000000 0.000000 0.000000 -0.000000 -0.000000 -0.000000 0.000000 0.000000 0.000000 -0.000000 -0.000000 -0.000000 0.000000 0.000000 0.000000 -0.000000 -0.000000 -0.000000 0.000000 0.000000 0.000000 -0.000000 -0.000000 -0.000000 0.000000 0.000000 0.000000 -0.000000 -0.000000 -0.000000 0.000000 0.000000 0.000000 -0.000000 -0.000000 -0.000000 0.000000 0.000000 0.000000 -0.000000 -0.000000 -0.000000 0.000000 0.000000 0.000000 -0.000000 -0.000000 -0.000000 0.000000 0.000000 0.000000 -0.000000 -0.000000 -0.000000 0.000000 0.000000 0.000000 -0.000000 -0.000000 -0.000000 0.000000 0.000000 0.000000 -0.000000 -0.000000 -0.000000 0.000000 0.000000 0.000000 -0.000000 -0.000000 -0.000000 0.000000 0.000000 0.000000 -0.000000 -0.000000 -0.000000 0.000000 0.000000 0.000000 -0.000000 -0.000000 -0.000000 0.000000 0.000000 0.000000 -0.000000 -0.000000 -0.000000 0.000000 0.000000 0.000000 -0.000000 -0.000000 -0.000000 0.000000 0.000000 0.000000 -0.000000 -0.000000 -0.000000 0.000000 0.000000 0.000000 -0.000000 -0.000000 -0.000000 0.000000 0.000000 0.000000 -0.000000 -0.000000 -0.000000 0.000000 0.000000 0.000000 -0.000000 -0.000000 -0.000000 0.000000 0.000000 0.000000 -0.000000 -0.000000 -0.000000 0.000000 0.000000 0.000000 -0.000000 -0.000000 -0.000000 0.000000 0.000000 0.000000 -0.000000 -0.000000 -0.000000 0.000000 0.000000 0.000000 -0.000000 -0.000000 -0.000000 0.000000 0.000000 0.000000 -0.000000 -0.000000 -0.000000 0.000000 0.000000 0.000000 -0.000000 -0.000000 -0.000000 0.000000 0.000000 0.000000 -0.000000 -0.000000 -0.000000 0.000000 0.000000 0.000000 -0.000000 -0.000000 -0.000000 0.000000 0.000000 0.000000 -0.000000 -0.000000 -0.000000 0.000000 0.000000 0.000000 -0.000000 -0.000000 -0.000000 0.000000 0.000000 0.000000 -0.000000 -0.000000 -0.000000 0.000000 0.000000 0.000000 -0.000000 -0.000000 -0.000000 0.000000 0.000000 0.000000 -0.000000 -0.000000 -0.000000 0.000000 0.000000 0.000000 -0.000000 -0.000000 -0.000000 0.000000 0.000000 0.000000 -0.000000 -0.000000 -0.000000 0.000000 0.000000 0.000000 -0.000000 -0.000000 -0.000000 0.000000 0.000000 0.000000 -0.000000 -0.000000 -0.000000 0.000000 0.000000 0.000000 -0.000000 -0.000000 -0.000000 0.000000 0.000000 0.000000 -0.000000 -0.000000 -0.000000 0.000000 0.000000 0.000000 -0.000000 -0.000000 -0.000000 0.000000 0.000000 0.000000 -0.000000 -0.000000 -0.000000 0.000000 0.000000 0.000000 -0.000000 -0.000000 -0.000000 0.000000 0.000000 0.000000 -0.000000 -0.000000 -0.000000 0.000000 0.000000 0.000000 -0.000000 -0.000000 -0.000000 0.000000 0.000000 0.000000 -0.000000 -0.000000 -0.000000 0.000000 0.000000 0.000000 -0.000000 -0.000000 -0.000000 0.000000 0.000000 0.000000 -0.000000 -0.000000 -0.000000 0.000000 0.000000 0.000000 -0.000000 -0.000000 -0.000000 0.000000 0.000000 0.000000 -0.000000 -0.000000 -0.000000 0.000000 0.000000 0.000000 -0.000000 -0.000000 -0.000000 0.000000 0.000000 0.000000 -0.000000 -0.000000 -0.000000 0.000000 0.000000 0.000000 -0.000000 -0.000000 -0.000000 0.000000 0.000000 0.000000 -0.000000 -0.000000 -0.000000 0.000000 0.000000 0.000000 -0.000000 -0.000000 -0.000000 0.000000 0.000000 0.000000 -0.000000 -0.000000 -0.000000 0.000000 0.000000 0.000000 -0.000000 -0.000000 -0.000000 0.000000 0.000000 0.000000 -0.000000 -0.000000 -0.000000 0.000000 0.000000 0.000000 -0.000000 -0.000000 -0.000000 0.000000 0.000000 0.000000 -0.000000 -0.000000 -0.000000 0.000000 0.000000 0.000000 -0.000000 -0.000000 -0.000000 0.000000 0.000000 0.000000 -0.000000 -0.000000 -0.000000 0.000000 0.000000 0.000000 -0.000000 -0.000000 -0.000000 0.000000 0.000000 0.000000 -0.000000 -0.000000 -0.000000 0.000000 0.000000 0.000000 -0.000000 -0.000000 -0.000000 0.000000 0.000000 0.000000 -0.000000 -0.000000 -0.000000 0.000000 0.000000 0.000000 -0.000000 -0.000000 -0.000000 0.000000 0.000000 0.000000 -0.000000 -0.000000 -0.000000 0.000000 0.000000 0.000000 -0.000000 -0.000000 -0.000000 0.000000 0.000000 0.000000 -0.000000 -0.000000 -0.000000 0.000000 0.000000 0.000000 -0.000000 -0.000000 -0.000000 0.000000 0.000000 0.000000 -0.000000 -0.000000 -0.000000 0.000000 0.000000 0.000000 -0.000000 -0.000000 -0.000000 0.000000 0.000000 0.000000 -0.000000 -0.000000 -0.000000 0.000000 0.000000 0.000000 -0.000000 -0.000000 -0.000000 0.000000 0.000000 0.000000 -0.000000 -0.000000 -0.000000 0.000000 0.000000 0.000000 -0.000000 -0.000000 -0.000000 0.000000 0.000000 0.000000 -0.000000 -0.000000 -0.000000 0.000000 0.000000 0.000000 -0.000000 -0.000000 -0.000000 0.000000 0.000000 0.000000 -0.000000 -0.000000 -0.000000 0.000000 0.000000 0.000000 -0.000000 -0.000000 -0.000000 0.000000 0.000000 0.000000 -0.000000 -0.000000 -0.000000 0.000000 0.000000 0.000000 -0.000000 -0.000000 -0.000000 0.000000 0.000000 0.000000 -0.000000 -0.000000 -0.000000 -0.000000 -0.000000 -0.000000 -0.000000 -0.000000 -0.000000 -0.000000 -0.000000 -0.000000 -0.000000 -0.000000 -0.000000 -0.000000 -0.000000 -0.000000 -0.000000 -0.000000 -0.000000 -0.000000 -0.000000 -0.000000 -0.000000 -0.000000 -0.000000 -0.000000 -0.000000 -0.000000 0.000000 -0.000000 -0.000000 -0.000000 -0.000000 -0.000000 0.000000 -0.000000 -0.000000 -0.000000 -0.000000 -0.000000 0.000000 -0.000000 -0.000000 -0.000000 -0.000000 -0.000000 0.000000 -0.000000 -0.000000 -0.000000 -0.000000 -0.000000 0.000000 -0.000000 -0.000000 -0.000000 -0.000000 -0.000000 0.000000 -0.000000 -0.000000 -0.000000 -0.000000 -0.000000 0.000000 -0.000000 -0.000000 -0.000000 -0.000000 -0.000000 0.000000 -0.000000 -0.000000 -0.000000 -0.000000 -0.000000 0.000000 -0.000000 -0.000000 -0.000000 -0.000000 -0.000000 0.000000 -0.000000 -0.000000 -0.000000 -0.000000 -0.000000 0.000000 -0.000000 -0.000000 -0.000000 -0.000000 -0.000000 0.000000 -0.000000 -0.000000 -0.000000 -0.000000 -0.000000 0.000000 -0.000000 -0.000000 -0.000000 -0.000000 -0.000000 0.000000 -0.000000 -0.000000 -0.000000 -0.000000 -0.000000 0.000000 -0.000000 -0.000000 -0.000000 -0.000000 -0.000000 0.000000 -0.000000 -0.000000 -0.000000 -0.000000 -0.000000 0.000000 -0.000000 -0.000000 -0.000000 -0.000000 -0.000000 0.000000 -0.000000 -0.000000 -0.000000 -0.000000 -0.000000 0.000000 -0.000000 -0.000000 -0.000000 -0.000000 -0.000000 0.000000 -0.000000 -0.000000 -0.000000 -0.000000 -0.000000 0.000000 -0.000000 -0.000000 -0.000000 -0.000000 -0.000000 0.000000 -0.000000 -0.000000 -0.000000 -0.000000 -0.000000 0.000000 -0.000000 -0.000000 -0.000000 -0.000000 -0.000000 0.000000 -0.000000 -0.000000 -0.000000 -0.000000 -0.000000 0.000000 -0.000000 -0.000000 -0.000000 -0.000000 -0.000000 0.000000 -0.000000 -0.000000 -0.000000 -0.000000 -0.000000 -0.000000 -0.000000 -0.000000 -0.000000 -0.000000 -0.000000 -0.000000 -0.000000 -0.000000 -0.000000 -0.000000 -0.000000 -0.000000 -0.000000 -0.000000 -0.000000 -0.000000 -0.000000 -0.000000 -0.000000 -0.000000 -0.000000 -0.000000 -0.000000 -0.000000 -0.000000 -0.000000 -0.000000 -0.000000 -0.000000 -0.000000 -0.000000 -0.000000 -0.000000 -0.000000 -0.000000 -0.000000 -0.000000 -0.000000 -0.000000 -0.000000 -0.000000 -0.000000 -0.000000 -0.000000 -0.000000 -0.000000 -0.000000 -0.000000 -0.000000 -0.000000 -0.000000 -0.000000 -0.000000 13554.239498 13554.239498 13554.239498 13501.311822 12936.802447 11144.362734 9482.268844 9654.526473 9192.282551 9226.328817 8252.533942 8165.226371 7426.230169 6770.569788 6453.182467 6282.566659 5182.218957 4508.288063 4347.755838 4272.690113 3161.932756 2213.297601 2511.860987 2111.141819 1223.797000 1693.567128 2313.769064 2148.560578 1856.551289 1569.447860 1325.739212 1125.536088 959.652018 819.371003 698.618459 593.609022 502.008803 422.254209 353.135811 293.590558 242.620237 199.272490 162.645746 131.898836 106.257963 85.019602 67.550207 53.283952 41.719461 32.416032 24.989583 19.108378 14.488577 10.889665 8.109830 5.981394 4.366410 3.152493 2.248979 1.583433 1.098556 0.749460 0.501341 0.327480 0.207588 0.126421 0.072657 0.037986 0.016390 0.003565 -0.003516 -0.006951 -0.008163 -0.008097 -0.007361 -0.006338 -0.005252 -0.004228 -0.003326 -0.002566 -0.001947 -0.001456 -0.001075 -0.000784 -0.000565 -0.000404 -0.000285 -0.000200 -0.000139 -0.000095 -0.000065 -0.000044 -0.000030 -0.000020 -0.000013 -0.000009 -0.000006 -0.000004 -0.000002 -0.000001 -0.000001 -0.000001 -0.000000 -0.000000 -0.000000 -0.000000 -0.000000 -0.000000 -0.000000 -0.000000 -0.000000 13184.732130 13184.732130 13184.732130 13140.875491 12735.597011 11695.951694 11053.997390 11005.661123 10202.374042 9876.748345 9346.813259 8931.681804 8432.172842 7929.044931 7389.804376 7261.334695 6569.251165 5895.130139 5461.106752 4923.317894 4076.687894 3501.927313 3219.396812 2903.410770 2543.045274 2422.474708 2329.970055 2109.030264 1823.426707 1552.629167 1319.740178 1124.800731 960.962805 821.274661 700.573851 595.453120 503.705974 423.801620 354.536051 294.847078 243.737971 200.258391 163.508519 132.648274 106.904292 85.573010 68.020567 53.680677 42.051431 32.691550 25.216337 19.293410 14.638263 11.009701 8.205241 6.056556 4.425083 3.197873 2.283744 1.609807 1.118361 0.764175 0.512152 0.335329 0.213213 0.130396 0.075422 0.039877 0.017656 0.004392 -0.002993 -0.006634 -0.007982 -0.008003 -0.007322 -0.006331 -0.005263 -0.004247 -0.003347 -0.002587 -0.001966 -0.001473 -0.001088 -0.000795 -0.000574 -0.000410 -0.000290 -0.000203 -0.000141 -0.000097 -0.000066 -0.000045 -0.000030 -0.000020 -0.000013 -0.000009 -0.000006 -0.000004 -0.000002 -0.000002 -0.000001 -0.000001 -0.000000 -0.000000 -0.000000 -0.000000 -0.000000 -0.000000 -0.000000 -0.000000 -0.000000 12998.288794 12998.288794 12998.288794 12984.478391 12841.463368 12536.396087 12315.864646 12112.846817 11758.380424 11381.584373 10958.944640 10502.098941 9998.883114 9440.757583 8848.487587 8229.186642 7547.391895 6849.605777 6177.100141 5508.266028 4851.003702 4268.100964 3779.851535 3353.100497 2978.555217 2662.038464 2371.164585 2079.460715 1796.135537 1538.721401 1315.317895 1125.001431 962.885789 823.618219 702.873528 597.585541 505.655501 425.574847 356.139661 296.286276 245.018683 201.388510 164.497864 133.507932 107.645887 86.208161 68.560555 54.136269 42.432788 33.008173 25.477026 19.506226 14.810504 11.147892 8.315139 6.143176 4.492739 3.250229 2.323879 1.640275 1.141256 0.781199 0.524670 0.344425 0.219739 0.135013 0.078638 0.042078 0.019132 0.005358 -0.002380 -0.006261 -0.007767 -0.007891 -0.007274 -0.006321 -0.005274 -0.004268 -0.003372 -0.002611 -0.001988 -0.001491 -0.001104 -0.000807 -0.000583 -0.000417 -0.000296 -0.000207 -0.000144 -0.000099 -0.000068 -0.000046 -0.000031 -0.000021 -0.000014 -0.000009 -0.000006 -0.000004 -0.000002 -0.000002 -0.000001 -0.000001 -0.000000 -0.000000 -0.000000 -0.000000 -0.000000 -0.000000 -0.000000 -0.000000 -0.000000 12973.942206 12973.942206 12973.942206 12965.823059 12877.056190 12674.557439 12479.482562 12243.606122 11935.892120 11575.187841 11164.228242 10705.250568 10194.008392 9626.727945 9013.020254 8360.710605 7667.178236 6961.199179 6268.701890 5591.020922 4942.790405 4358.800514 3852.617092 3412.372863 3027.431596 2688.608306 2375.843222 2075.539917 1792.194899 1536.737079 1314.764197 1125.141485 963.273478 824.055377 703.292270 597.970137 506.005733 425.892933 356.427201 296.544345 245.248377 201.591243 164.675382 133.662208 107.778997 86.322184 68.657510 54.218084 42.501286 33.065056 25.523871 19.544478 14.841471 11.172744 8.334908 6.158763 4.504918 3.259657 2.331109 1.645765 1.145383 0.784270 0.526928 0.346067 0.220918 0.135847 0.079220 0.042477 0.019400 0.005533 -0.002269 -0.006193 -0.007728 -0.007871 -0.007265 -0.006319 -0.005275 -0.004271 -0.003376 -0.002615 -0.001992 -0.001494 -0.001106 -0.000809 -0.000585 -0.000419 -0.000297 -0.000208 -0.000145 -0.000100 -0.000068 -0.000046 -0.000031 -0.000021 -0.000014 -0.000009 -0.000006 -0.000004 -0.000002 -0.000002 -0.000001 -0.000001 -0.000000 -0.000000 -0.000000 -0.000000 -0.000000 -0.000000 -0.000000 -0.000000 -0.000000 12973.942206 12973.942206 12973.942206 12965.823059 12877.056190 12674.557439 12479.482562 12243.606122 11935.892120 11575.187841 11164.228242 10705.250568 10194.008392 9626.727945 9013.020254 8360.710605 7667.178236 6961.199179 6268.701890 5591.020922 4942.790405 4358.800514 3852.617092 3412.372863 3027.431596 2688.608306 2375.843222 2075.539917 1792.194899 1536.737079 1314.764197 1125.141485 963.273478 824.055377 703.292270 597.970137 506.005733 425.892933 356.427201 296.544345 245.248377 201.591243 164.675382 133.662208 107.778997 86.322184 68.657510 54.218084 42.501286 33.065056 25.523871 19.544478 14.841471 11.172744 8.334908 6.158763 4.504918 3.259657 2.331109 1.645765 1.145383 0.784270 0.526928 0.346067 0.220918 0.135847 0.079220 0.042477 0.019400 0.005533 -0.002269 -0.006193 -0.007728 -0.007871 -0.007265 -0.006319 -0.005275 -0.004271 -0.003376 -0.002615 -0.001992 -0.001494 -0.001106 -0.000809 -0.000585 -0.000419 -0.000297 -0.000208 -0.000145 -0.000100 -0.000068 -0.000046 -0.000031 -0.000021 -0.000014 -0.000009 -0.000006 -0.000004 -0.000002 -0.000002 -0.000001 -0.000001 -0.000000 -0.000000 -0.000000 -0.000000 -0.000000 -0.000000 -0.000000 -0.000000 -0.000000 12973.942206 12973.942206 12973.942206 12965.823059 12877.056190 12674.557439 12479.482562 12243.606122 11935.892120 11575.187841 11164.228242 10705.250568 10194.008392 9626.727945 9013.020254 8360.710605 7667.178236 6961.199179 6268.701890 5591.020922 4942.790405 4358.800514 3852.617092 3412.372863 3027.431596 2688.608306 2375.843222 2075.539917 1792.194899 1536.737079 1314.764197 1125.141485 963.273478 824.055377 703.292270 597.970137 506.005733 425.892933 356.427201 296.544345 245.248377 201.591243 164.675382 133.662208 107.778997 86.322184 68.657510 54.218084 42.501286 33.065056 25.523871 19.544478 14.841471 11.172744 8.334908 6.158763 4.504918 3.259657 2.331109 1.645765 1.145383 0.784270 0.526928 0.346067 0.220918 0.135847 0.079220 0.042477 0.019400 0.005533 -0.002269 -0.006193 -0.007728 -0.007871 -0.007265 -0.006319 -0.005275 -0.004271 -0.003376 -0.002615 -0.001992 -0.001494 -0.001106 -0.000809 -0.000585 -0.000419 -0.000297 -0.000208 -0.000145 -0.000100 -0.000068 -0.000046 -0.000031 -0.000021 -0.000014 -0.000009 -0.000006 -0.000004 -0.000002 -0.000002 -0.000001 -0.000001 -0.000000 -0.000000 -0.000000 -0.000000 -0.000000 -0.000000 -0.000000 -0.000000 -0.000000 12954.537489 12954.537489 12954.537489 12945.316723 12184.169786 9851.624138 9613.651384 10859.976223 10435.265975 11812.964319 12253.744328 8855.787965 8356.723643 8290.866380 6692.364704 5759.816580 5397.020412 3344.135909 91.617856 -2104.789469 -1039.972305 2778.413720 380.271950 -3356.145987 -2148.115753 -865.900110 99.785035 1128.153521 1953.178746 -219.982521 -1590.506221 44.924012 2098.861382 1150.695205 -2041.886653 -828.703605 1559.531683 564.096022 -1890.595155 -937.779724 799.303942 1273.743787 -1039.492740 -1454.947465 -334.187514 762.136623 1208.721339 -663.038951 -1297.941695 -247.762611 -222.574971 -2029.294803 -2381.752719 -1815.457215 -1525.246039 -1351.405127 12827.772963 12827.772963 12827.772963 12937.658644 14024.361685 14100.715336 13681.617626 12133.360980 15704.116749 9822.843014 11844.669100 8641.872112 10848.827624 12040.591277 13159.551539 9714.152620 10661.688819 10154.100865 11842.048346 10613.643503 16650.360740 10002.775474 10035.777053 10893.375355 11292.980348 12072.709126 10600.773281 10496.051716 10586.689961 10192.420135 10228.434955 12140.087237 9960.484455 9169.016482 15709.458070 11608.886941 10434.623312 9390.340989 10203.530333 11578.788634 13743.742502 8717.539313 11632.040202 11889.506905 14245.602751 13011.316401 10986.355728 10512.281899 11707.055268 15216.482771 12123.822457 14627.899372 13366.650519 -162.055479 161.151877 -475.024314 12530.053334 12530.053334 12530.053334 12655.152440 14017.710517 12866.015039 11837.186651 13520.948233 11854.417002 11485.220201 8268.432984 13459.775678 11259.039216 13355.400258 10070.857161 10774.935692 10736.654212 11142.110758 11529.387188 9196.340667 10287.172261 9790.857855 9304.424952 9178.529727 9515.460691 10063.485084 10426.846133 11696.693358 9436.685839 10627.528322 11202.628315 9938.343865 9995.408204 12685.180103 10310.106128 11353.280634 13029.105312 12565.613729 11346.339320 14266.139056 11982.696964 10808.999223 11871.472171 10578.503479 10007.424305 14221.931326 16764.259187 10509.601275 15384.207384 12205.940928 12839.816790 12378.212349 4255.192478 2676.683752 123.558658 131.772707 12258.458848 12258.458848 12258.458848 12261.031765 11989.909396 10539.372041 15241.548781 17902.585682 13201.757808 11557.136147 12747.587532 11618.571735 9963.461245 9972.704024 12458.944967 9863.530400 9267.756877 8107.962746 9820.213666 9593.264390 12760.211335 9191.573071 9213.078890 11497.495368 9763.525682 9707.952624 10652.482978 10195.432968 8126.408057 9900.170409 7968.873191 10633.324391 8421.597586 9519.382540 8926.500808 7484.451043 7519.574170 12153.419290 10739.242423 11462.169951 11386.274228 11389.653702 9914.938865 11547.925432 12040.304567 12172.219747 13902.155607 12985.392011 9147.865002 12524.903147 7615.764389 10607.984632 3509.806452 3715.862195 -247.313766 136.537057 12080.847743 12080.847743 12080.847743 12050.369279 11644.734161 12716.860142 14862.871382 14296.579176 10820.596961 13279.464438 12316.961486 11842.717567 13324.070472 9706.959998 11973.436767 11880.057991 10473.129913 10644.121043 7255.720898 10209.878966 8950.385820 6658.866177 7279.545908 10780.212702 9419.861358 8219.675836 8309.579731 6481.289615 8189.198957 9072.922603 8614.837839 7453.056073 6986.172598 8654.455662 6163.675226 6679.389816 11293.808209 9965.250542 7151.993368 7770.467417 12024.869274 6679.623997 9065.720079 8915.050647 7561.804522 3026.444621 8707.348423 9262.651247 1092