<VTKFile type="PolyData">
<PolyData>
<Piece NumberOfPoints="8632" NumberOfVerts="8632" NumberOfLines="0" NumberOfStrips="0" NumberOfPolys="0">
<PointData>
<DataArray type="Float64" Name="Pressure" format="ascii">
 13197.185166 13197.185166 13197.185166 13179.043586 12975.068806 12447.727309 11891.904299 11349.365198 10812.572817 10225.525200 9598.939079 8944.241050 8262.925488 7579.958780 6901.332554 6200.443251 5465.363316 4703.206561 3944.056155 3245.773073 2655.726855 2151.050358 1640.682397 1136.108604 769.253147 581.897433 515.498806 489.326115 433.165987 329.098314 247.070009 239.536576 251.541683 205.976608 121.571284 81.264710 71.180222 17.801477 -60.066885 -80.298929 -55.712115 -68.347778 -140.506973 -190.913731 -176.984322 -149.829489 -191.578803 -330.206680 -491.454572 -630.455421 -789.462597 -978.360670 -1119.281402 -1171.012157 -1157.226884 -1107.318712 -1038.266583 -960.644414 -881.395565 -804.156499 -730.492003 -661.027293 -595.980123 -535.389128 -479.206023 -427.332893 -379.638410 -335.966392 -296.141697 -259.975105 -227.267612 -197.814164 -171.406816 -147.837296 -126.899045 -108.388816 -92.107948 -77.863419 -65.468759 -54.744894 -45.520927 -37.634868 -30.934295 -25.276917 -20.531004 -16.575665 -13.300962 -10.607832 -8.407858 -6.622860 -5.184373 -4.032997 -3.117688 -2.394984 -1.828217 -1.386735 -1.045137 -0.782556 -0.581997 -0.429723 -0.314721 -0.228225 -0.163317 -0.114614 -0.078051 -0.050630 -0.029637 -0.017079 -0.014781 -0.014781 -0.014781 13197.185166 13197.185166 13197.185166 13179.043586 12975.068806 12447.727309 11891.904299 11349.365198 10812.572817 10225.525200 9598.939079 8944.241050 8262.925488 7579.958780 6901.332554 6200.443251 5465.363316 4703.206561 3944.056155 3245.773073 2655.726855 2151.050358 1640.682397 1136.108604 769.253147 581.897433 515.498806 489.326115 433.165987 329.098314 247.070009 239.536576 251.541683 205.976608 121.571284 81.264710 71.180222 17.801477 -60.066885 -80.298929 -55.712115 -68.347778 -140.506973 -190.913731 -176.984322 -149.829489 -191.578803 -330.206680 -491.454572 -630.455421 -789.462597 -978.360670 -1119.281402 -1171.012157 -1157.226884 -1107.318712 -1038.266583 -960.644414 -881.395565 -804.156499 -730.492003 -661.027293 -595.980123 -535.389128 -479.206023 -427.332893 -379.638410 -335.966392 -296.141697 -259.975105 -227.267612 -197.814164 -171.406816 -147.837296 -126.899045 -108.388816 -92.107948 -77.863419 -65.468759 -54.744894 -45.520927 -37.634868 -30.934295 -25.276917 -20.531004 -16.575665 -13.300962 -10.607832 -8.407858 -6.622860 -5.184373 -4.032997 -3.117688 -2.394984 -1.828217 -1.386735 -1.045137 -0.782556 -0.581997 -0.429723 -0.314721 -0.228225 -0.163317 -0.114614 -0.078051 -0.050630 -0.029637 -0.017079 -0.014781 -0.014781 -0.014781 13197.185166 13197.185166 13197.185166 13179.043586 12975.068806 12447.727309 11891.904299 11349.365198 10812.572817 10225.525200 9598.939079 8944.241050 8262.925488 7579.958780 6901.332554 6200.443251 5465.363316 4703.206561 3944.056155 3245.773073 2655.726855 2151.050358 1640.682397 1136.108604 769.253147 581.897433 515.498806 489.326115 433.165987 329.098314 247.070009 239.536576 251.541683 205.976608 121.571284 81.264710 71.180222 17.801477 -60.066885 -80.298929 -55.712115 -68.347778 -140.506973 -190.913731 -176.984322 -149.829489 -191.578803 -330.206680 -491.454572 -630.455421 -789.462597 -978.360670 -1119.281402 -1171.012157 -1157.226884 -1107.318712 -1038.266583 -960.644414 -881.395565 -804.156499 -730.492003 -661.027293 -595.980123 -535.389128 -479.206023 -427.332893 -379.638410 -335.966392 -296.141697 -259.975105 -227.267612 -197.814164 -171.406816 -147.837296 -126.899045 -108.388816 -92.107948 -77.863419 -65.468759 -54.744894 -45.520927 -37.634868 -30.934295 -25.276917 -20.531004 -16.575665 -13.300962 -10.607832 -8.407858 -6.622860 -5.184373 -4.032997 -3.117688 -2.394984 -1.828217 -1.386735 -1.045137 -0.782556 -0.581997 -0.429723 -0.314721 -0.228225 -0.163317 -0.114614 -0.078051 -0.050630 -0.029637 -0.017079 -0.014781 -0.014781 -0.014781 13184.426813 13184.426813 13184.426813 13169.813511 12996.172902 12511.943632 11948.841062 11393.223498 10847.854579 10218.407600 9572.209943 8908.480904 8213.808237 7530.185768 6861.470218 6157.596897 5414.570372 4630.306816 3831.854002 3107.607697 2529.970878 2080.123816 1580.503043 1037.365277 673.922696 522.861848 494.189566 497.800233 450.690833 320.665283 218.980977 232.355915 272.454135 218.059367 99.765486 66.129663 85.057842 24.240270 -84.588386 -98.095941 -42.894699 -46.092573 -151.406917 -215.090679 -181.789272 -126.258472 -150.508253 -325.096728 -501.034921 -624.109182 -788.254121 -1022.060327 -1151.246205 -1194.918086 -1171.304401 -1115.625869 -1042.780571 -962.745857 -882.241377 -804.460994 -730.574434 -661.020821 -595.938829 -535.334909 -479.147838 -427.274508 -379.581484 -335.911706 -296.089647 -259.925900 -227.221357 -197.770902 -171.366546 -147.799986 -126.864642 -108.357249 -92.079132 -77.837256 -65.445143 -54.723706 -45.502038 -37.618141 -30.919585 -25.264073 -20.519871 -16.566088 -13.292784 -10.600904 -8.402032 -6.618000 -5.180349 -4.029692 -3.114994 -2.392804 -1.826468 -1.385342 -1.044036 -0.781693 -0.581324 -0.429202 -0.314316 -0.227900 -0.163026 -0.114285 -0.077624 -0.050165 -0.029328 -0.016892 -0.014627 -0.014627 -0.014627 13054.283436 13054.283436 13054.283436 13084.118044 13343.110342 13384.033294 12557.585774 11730.314991 11237.313240 9974.142501 9200.711690 8521.548549 7636.774086 6973.019362 6451.176807 5670.150120 4883.548127 3847.024388 2501.971970 1376.215291 973.783391 1446.929577 1074.212400 -311.249088 -507.612130 -159.970179 270.380394 641.509251 811.152138 182.523861 -282.451791 143.278880 644.969257 476.131875 -347.569672 -180.208550 409.883584 218.599145 -572.273311 -368.258383 183.811147 410.891125 -376.474411 -630.180092 -251.830753 205.372655 447.343474 -337.856143 -764.547645 -519.272814 -721.542884 -1605.440811 -1688.680755 -1465.193080 -1326.815546 -1209.869429 -1093.881838 -983.952231 -890.582599 -807.413507 -731.356443 -660.938577 -595.518875 -534.789965 -478.564956 -426.690316 -379.012162 -335.364909 -295.569266 -259.433994 -226.758970 -197.338448 -170.964011 -147.427053 -126.520772 -108.041731 -91.791118 -77.575778 -65.209121 -54.511957 -45.313277 -37.450995 -30.772603 -25.135744 -20.408648 -16.470409 -13.211099 -10.531699 -8.343852 -6.569466 -5.140174 -3.996694 -3.088100 -2.371054 -1.809013 -1.371441 -1.033050 -0.773077 -0.574616 -0.424005 -0.310280 -0.224667 -0.160123 -0.110904 -0.072356 -0.044007 -0.025518 -0.014821 -0.012968 -0.012968 -0.012968 12865.649496 12865.649496 12865.649496 12968.269248 14112.599819 14891.111216 12219.505030 11260.171547 11921.513271 8205.853117 9375.304225 8388.080435 6519.196506 6227.707124 6295.091776 4597.078399 4400.556759 3371.115055 347.572340 -1470.020890 -2107.461934 1790.258208 1134.464947 -3197.373593 -2423.790001 -1006.796612 14.798319 986.660885 1795.290705 -35.177925 -1444.697190 -72.455758 1727.543649 1286.315441 -1673.022650 -884.560179 1312.838179 691.259724 -1703.433879 -963.925439 659.748304 1253.427981 -868.996417 -1408.796942 -367.036169 681.689781 1206.103775 -547.095172 -1279.811244 -293.418984 -188.979193 -1924.549428 -2335.369631 -1800.714935 -1514.601127 -1338.807459 -1181.912818 -1019.200098 -903.608530 -812.116469 -732.772530 -661.054089 -595.124451 -534.203272 -477.915152 -426.031100 -378.366747 -334.743921 -294.977890 -258.874864 -226.233384 -196.846910 -170.506513 -147.003234 -126.130012 -107.683220 -91.463890 -77.278731 -64.941028 -54.271469 -45.098937 -37.261236 -30.605775 -24.990126 -20.282476 -16.361904 -13.118496 -10.453273 -8.277945 -6.514507 -5.094701 -3.959361 -3.057687 -2.346469 -1.789292 -1.355744 -1.020651 -0.763357 -0.567048 -0.418136 -0.305698 -0.220927 -0.156555 -0.106014 -0.061455 -0.032878 -0.019635 -0.012160 -0.010821 -0.010821 -0.010821 -0.028022 -0.016877 -0.011284 -0.010545 -0.010545 -0.010545 -0.018891 -0.012931 -0.009301 -0.008814 -0.008814 -0.008814 -0.010114 -0.008218 -0.006669 -0.006450 -0.006450 -0.006450 -0.005925 -0.005249 -0.004663 -0.004576 -0.004576 -0.004576 -0.003645 -0.003411 -0.003209 -0.003180 -0.003180 -0.003180 -0.002315 -0.002243 -0.002185 -0.002178 -0.002178 -0.002178 -0.001497 -0.001482 -0.001475 -0.001475 -0.001475 -0.001475 -0.000977 -0.000980 -0.000989 -0.000990 -0.000990 -0.000990 -0.000639 -0.000647 -0.000658 -0.000660 -0.000660 -0.000660 -0.000418 -0.000426 -0.000435 -0.000437 -0.000437 -0.000437 -0.000273 -0.000279 -0.000286 -0.000287 -0.000287 -0.000287 -0.000177 -0.000182 -0.000187 -0.000187 -0.000187 -0.000187 -0.000115 -0.000118 -0.000121 -0.000122 -0.000122 -0.000122 -0.000074 -0.000076 -0.000078 -0.000079 -0.000079 -0.000079 -0.000047 -0.000049 -0.000050 -0.000050 -0.000050 -0.000050 -0.000030 -0.000031 -0.000032 -0.000032 -0.000032 -0.000032 -0.000019 -0.000020 -0.000020 -0.000020 -0.000020 -0.000020 -0.000012 -0.000012 -0.000013 -0.000013 -0.000013 -0.000013 -0.000007 -0.000008 -0.000008 -0.000008 -0.000008 -0.000008 -0.000005 -0.000005 -0.000005 -0.000005 -0.000005 -0.000005 -0.000003 -0.000003 -0.000003 -0.000003 -0.000003 -0.000003 -0.000002 -0.000002 -0.000002 -0.000002 -0.000002 -0.000002 -0.000001 -0.000001 -0.000001 -0.000001 -0.000001 -0.000001 -0.000001 -0.000001 -0.000001 -0.000001 -0.000001 -0.000001 -0.000000 -0.000000 -0.000000 -0.000000 -0.000000 -0.000000 -0.000000 -0.000000 -0.000000 -0.000000 -0.000000 -0.000000 -0.000000 -0.000000 -0.000000 -0.000000 -0.000000 -0.000000 -0.000000 -0.000000 -0.000000 -0.000000 -0.000000 -0.000000 -0.000000 -0.000000 -0.000000 -0.000000 -0.000000 -0.000000 -0.000000 -0.000000 -0.000000 -0.000000 -0.000000 -0.000000 -0.000000 -0.000000 -0.000000 -0.000000 -0.000000 -0.000000 -0.000000 -0.000000 -0.000000 -0.000000 -0.000000 -0.000000 -0.000000 -0.000000 -0.000000 -0.000000 -0.000000 -0.000000 -0.000000 -0.000000 -0.000000 -0.000000 -0.000000 -0.000000 -0.000000 -0.000000 -0.000000 -0.000000 -0.000000 -0.000000 -0.000000 -0.000000 -0.000000 -0.000000 -0.000000 -0.000000 -0.000000 -0.000000 -0.000000 -0.000000 -0.000000 -0.000000 -0.000000 -0.000000 -0.000000 -0.000000 -0.000000 -0.000000 -0.000000 -0.000000 -0.000000 -0.000000 -0.000000 -0.000000 -0.000000 -0.000000 -0.000000 -0.000000 -0.000000 -0.000000 -0.000000 -0.000000 -0.000000 -0.000000 -0.000000 -0.000000 -0.000000 -0.000000 -0.000000 -0.000000 -0.000000 -0.000000 -0.000000 -0.000000 -0.000000 -0.000000 -0.000000 -0.000000 -0.000000 -0.000000 -0.000000 -0.000000 -0.000000 -0.000000 -0.000000 -0.000000 -0.000000 -0.000000 -0.000000 -0.000000 -0.000000 -0.000000 -0.000000 -0.000000 -0.000000 -0.000000 -0.000000 -0.000000 -0.000000 -0.000000 -0.000000 -0.000000 -0.000000 -0.000000 -0.000000 -0.000000 -0.000000 -0.000000 -0.000000 -0.000000 -0.000000 -0.000000 -0.000000 -0.000000 -0.000000 -0.000000 -0.000000 -0.000000 -0.000000 -0.000000 -0.000000 -0.000000 -0.000000 0.000000 0.000000 0.000000 -0.000000 -0.000000 -0.000000 0.000000 0.000000 0.000000 -0.000000 -0.000000 -0.000000 0.000000 0.000000 0.000000 -0.000000 -0.000000 -0.000000 0.000000 0.000000 0.000000 -0.000000 -0.000000 -0.000000 0.000000 0.000000 0.000000 -0.000000 -0.000000 -0.000000 0.000000 0.000000 0.000000 -0.000000 -0.000000 -0.000000 0.000000 0.000000 0.000000 -0.000000 -0.000000 -0.000000 0.000000 0.000000 0.000000 -0.000000 -0.000000 -0.000000 0.000000 0.000000 0.000000 -0.000000 -0.000000 -0.000000 0.000000 0.000000 0.000000 -0.000000 -0.000000 -0.000000 0.000000 0.000000 0.000000 -0.000000 -0.000000 -0.000000 0.000000 0.000000 0.000000 -0.000000 -0.000000 -0.000000 0.000000 0.000000 0.000000 -0.000000 -0.000000 -0.000000 0.000000 0.000000 0.000000 -0.000000 -0.000000 -0.000000 0.000000 0.000000 0.000000 -0.000000 -0.000000 -0.000000 0.000000 0.000000 0.000000 -0.000000 -0.000000 -0.000000 0.000000 0.000000 0.000000 -0.000000 -0.000000 -0.000000 0.000000 0.000000 0.000000 -0.000000 -0.000000 -0.000000 0.000000 0.000000 0.000000 -0.000000 -0.000000 -0.000000 0.000000 0.000000 0.000000 -0.000000 -0.000000 -0.000000 0.000000 0.000000 0.000000 -0.000000 -0.000000 -0.000000 0.000000 0.000000 0.000000 -0.000000 -0.000000 -0.000000 0.000000 0.000000 0.000000 -0.000000 -0.000000 -0.000000 0.000000 0.000000 0.000000 -0.000000 -0.000000 -0.000000 0.000000 0.000000 0.000000 -0.000000 -0.000000 -0.000000 0.000000 0.000000 0.000000 -0.000000 -0.000000 -0.000000 0.000000 0.000000 0.000000 -0.000000 -0.000000 -0.000000 0.000000 0.000000 0.000000 -0.000000 -0.000000 -0.000000 0.000000 0.000000 0.000000 -0.000000 -0.000000 -0.000000 0.000000 0.000000 0.000000 -0.000000 -0.000000 -0.000000 0.000000 0.000000 0.000000 -0.000000 -0.000000 -0.000000 0.000000 0.000000 0.000000 -0.000000 -0.000000 -0.000000 0.000000 0.000000 0.000000 -0.000000 -0.000000 -0.000000 0.000000 0.000000 0.000000 -0.000000 -0.000000 -0.000000 0.000000 0.000000 0.000000 -0.000000 -0.000000 -0.000000 0.000000 0.000000 0.000000 -0.000000 -0.000000 -0.000000 0.000000 0.000000 0.000000 -0.000000 -0.000000 -0.000000 0.000000 0.000000 0.000000 -0.000000 -0.000000 -0.000000 0.000000 0.000000 0.000000 -0.000000 -0.000000 -0.000000 0.000000 0.000000 0.000000 -0.000000 -0.000000 -0.000000 0.000000 0.000000 0.000000 -0.000000 -0.000000 -0.000000 0.000000 0.000000 0.000000 -0.000000 -0.000000 -0.000000 0.000000 0.000000 0.000000 -0.000000 -0.000000 -0.000000 0.000000 0.000000 0.000000 -0.000000 -0.000000 -0.000000 0.000000 0.000000 0.000000 -0.000000 -0.000000 -0.000000 0.000000 0.000000 0.000000 -0.000000 -0.000000 -0.000000 0.000000 0.000000 0.000000 -0.000000 -0.000000 -0.000000 0.000000 0.000000 0.000000 -0.000000 -0.000000 -0.000000 0.000000 0.000000 0.000000 -0.000000 -0.000000 -0.000000 0.000000 0.000000 0.000000 -0.000000 -0.000000 -0.000000 0.000000 0.000000 0.000000 -0.000000 -0.000000 -0.000000 0.000000 0.000000 0.000000 -0.000000 -0.000000 -0.000000 0.000000 0.000000 0.000000 -0.000000 -0.000000 -0.000000 0.000000 0.000000 0.000000 -0.000000 -0.000000 -0.000000 0.000000 0.000000 0.000000 -0.000000 -0.000000 -0.000000 0.000000 0.000000 0.000000 -0.000000 -0.000000 -0.000000 0.000000 0.000000 0.000000 -0.000000 -0.000000 -0.000000 0.000000 0.000000 0.000000 -0.000000 -0.000000 -0.000000 0.000000 0.000000 0.000000 -0.000000 -0.000000 -0.000000 0.000000 0.000000 0.000000 -0.000000 -0.000000 -0.000000 0.000000 0.000000 0.000000 -0.000000 -0.000000 -0.000000 0.000000 0.000000 0.000000 -0.000000 -0.000000 -0.000000 0.000000 0.000000 0.000000 -0.000000 -0.000000 -0.000000 0.000000 0.000000 0.000000 -0.000000 -0.000000 -0.000000 0.000000 0.000000 0.000000 -0.000000 -0.000000 -0.000000 0.000000 0.000000 0.000000 -0.000000 -0.000000 -0.000000 0.000000 0.000000 0.000000 -0.000000 -0.000000 -0.000000 0.000000 0.000000 0.000000 -0.000000 -0.000000 -0.000000 0.000000 0.000000 0.000000 -0.000000 -0.000000 -0.000000 0.000000 0.000000 0.000000 -0.000000 -0.000000 -0.000000 0.000000 0.000000 0.000000 -0.000000 -0.000000 -0.000000 0.000000 0.000000 0.000000 -0.000000 -0.000000 -0.000000 0.000000 0.000000 0.000000 -0.000000 -0.000000 -0.000000 0.000000 0.000000 0.000000 -0.000000 -0.000000 -0.000000 0.000000 0.000000 0.000000 -0.000000 -0.000000 -0.000000 0.000000 0.000000 0.000000 -0.000000 -0.000000 -0.000000 0.000000 0.000000 0.000000 -0.000000 -0.000000 -0.000000 0.000000 0.000000 0.000000 -0.000000 -0.000000 -0.000000 0.000000 0.000000 0.000000 -0.000000 -0.000000 -0.000000 0.000000 0.000000 0.000000 -0.000000 -0.000000 -0.000000 0.000000 0.000000 0.000000 -0.000000 -0.000000 -0.000000 0.000000 0.000000 0.000000 -0.000000 -0.000000 -0.000000 0.000000 0.000000 0.000000 -0.000000 -0.000000 -0.000000 0.000000 0.000000 0.000000 -0.000000 -0.000000 -0.000000 0.000000 0.000000 0.000000 -0.000000 -0.000000 -0.000000 0.000000 0.000000 0.000000 -0.000000 -0.000000 -0.000000 0.000000 0.000000 0.000000 -0.000000 -0.000000 -0.000000 0.000000 0.000000 0.000000 -0.000000 -0.000000 -0.000000 0.000000 0.000000 0.000000 -0.000000 -0.000000 -0.000000 0.000000 0.000000 0.000000 -0.000000 -0.000000 -0.000000 0.000000 0.000000 0.000000 -0.000000 -0.000000 -0.000000 0.000000 0.000000 0.000000 -0.000000 -0.000000 -0.000000 0.000000 0.000000 0.000000 -0.000000 -0.000000 -0.000000 0.000000 0.000000 0.000000 -0.000000 -0.000000 -0.000000 0.000000 0.000000 0.000000 -0.000000 -0.000000 -0.000000 0.000000 0.000000 0.000000 -0.000000 -0.000000 -0.000000 0.000000 0.000000 0.000000 -0.000000 -0.000000 -0.000000 0.000000 0.000000 0.000000 -0.000000 -0.000000 -0.000000 0.000000 0.000000 0.000000 -0.000000 -0.000000 -0.000000 0.000000 0.000000 0.000000 -0.000000 -0.000000 -0.000000 0.000000 0.000000 0.000000 -0.000000 -0.000000 -0.000000 0.000000 0.000000 0.000000 -0.000000 -0.000000 -0.000000 0.000000 0.000000 0.000000 -0.000000 -0.000000 -0.000000 0.000000 0.000000 0.000000 -0.000000 -0.000000 -0.000000 0.000000 0.000000 0.000000 -0.000000 -0.000000 -0.000000 0.000000 0.000000 0.000000 -0.000000 -0.000000 -0.000000 0.000000 0.000000 0.000000 -0.000000 -0.000000 -0.000000 0.000000 0.000000 0.000000 -0.000000 -0.000000 -0.000000 0.000000 0.000000 0.000000 -0.000000 -0.000000 -0.000000 0.000000 0.000000 0.000000 -0.000000 -0.000000 -0.000000 -0.000000 -0.000000 -0.000000 -0.000000 -0.000000 -0.000000 -0.000000 -0.000000 -0.000000 -0.000000 -0.000000 -0.000000 -0.000000 -0.000000 -0.000000 -0.000000 -0.000000 -0.000000 -0.000000 -0.000000 -0.000000 -0.000000 -0.000000 -0.000000 -0.000000 -0.000000 -0.000000 0.000000 -0.000000 -0.000000 -0.000000 -0.000000 -0.000000 0.000000 -0.000000 -0.000000 -0.000000 -0.000000 -0.000000 0.000000 -0.000000 -0.000000 -0.000000 -0.000000 -0.000000 0.000000 -0.000000 -0.000000 -0.000000 -0.000000 -0.000000 0.000000 -0.000000 -0.000000 -0.000000 -0.000000 -0.000000 0.000000 -0.000000 -0.000000 -0.000000 -0.000000 -0.000000 0.000000 -0.000000 -0.000000 -0.000000 -0.000000 -0.000000 0.000000 -0.000000 -0.000000 -0.000000 -0.000000 -0.000000 0.000000 -0.000000 -0.000000 -0.000000 -0.000000 -0.000000 0.000000 -0.000000 -0.000000 -0.000000 -0.000000 -0.000000 0.000000 -0.000000 -0.000000 -0.000000 -0.000000 -0.000000 0.000000 -0.000000 -0.000000 -0.000000 -0.000000 -0.000000 0.000000 -0.000000 -0.000000 -0.000000 -0.000000 -0.000000 0.000000 -0.000000 -0.000000 -0.000000 -0.000000 -0.000000 0.000000 -0.000000 -0.000000 -0.000000 -0.000000 -0.000000 0.000000 -0.000000 -0.000000 -0.000000 -0.000000 -0.000000 0.000000 -0.000000 -0.000000 -0.000000 -0.000000 -0.000000 0.000000 -0.000000 -0.000000 -0.000000 -0.000000 -0.000000 0.000000 -0.000000 -0.000000 -0.000000 -0.000000 -0.000000 0.000000 -0.000000 -0.000000 -0.000000 -0.000000 -0.000000 0.000000 -0.000000 -0.000000 -0.000000 -0.000000 -0.000000 0.000000 -0.000000 -0.000000 -0.000000 -0.000000 -0.000000 0.000000 -0.000000 -0.000000 -0.000000 -0.000000 -0.000000 0.000000 -0.000000 -0.000000 -0.000000 -0.000000 -0.000000 0.000000 -0.000000 -0.000000 -0.000000 -0.000000 -0.000000 0.000000 -0.000000 -0.000000 -0.000000 -0.000000 -0.000000 0.000000 -0.000000 -0.000000 -0.000000 -0.000000 -0.000000 0.000000 -0.000000 -0.000000 -0.000000 -0.000000 -0.000000 -0.000000 -0.000000 -0.000000 -0.000000 -0.000000 -0.000000 -0.000000 -0.000000 -0.000000 -0.000000 -0.000000 -0.000000 -0.000000 -0.000000 -0.000000 -0.000000 -0.000000 -0.000000 -0.000000 -0.000000 -0.000000 -0.000000 -0.000000 -0.000000 -0.000000 -0.000000 -0.000000 -0.000000 -0.000000 -0.000000 -0.000000 -0.000000 -0.000000 -0.000000 -0.000000 -0.000000 -0.000000 -0.000000 -0.000000 -0.000000 -0.000000 -0.000000 13706.675863 13706.675863 13706.675863 13812.513423 14579.471037 12309.193936 8585.339940 9448.329252 9824.308773 10117.162854 9002.710730 8943.283459 8605.432354 7947.330590 7353.488639 6866.941549 5625.034895 4760.672911 4847.708805 4273.013101 3140.322614 2269.526711 2590.977538 2061.575986 1568.788656 2533.240665 2859.294448 2301.797762 1864.586889 1534.049878 1286.286288 1092.797969 934.102015 798.959834 681.446703 578.500696 488.388051 409.893741 341.961440 283.570160 233.715795 191.427632 155.788587 125.948806 101.131721 80.634813 63.827510 50.147866 39.098821 30.244299 23.205138 17.654798 13.314844 9.950250 7.364645 5.395608 3.910144 2.800432 1.979930 1.379861 0.946112 0.636535 0.418644 0.267658 0.164883 0.096375 0.051859 0.023856 0.006997 -0.002514 -0.007318 -0.009220 -0.009425 -0.008717 -0.007589 -0.006339 -0.005134 -0.004057 -0.003142 -0.002392 -0.001794 -0.001327 -0.000970 -0.000700 -0.000501 -0.000354 -0.000248 -0.000172 -0.000119 -0.000081 -0.000055 -0.000037 -0.000025 -0.000016 -0.000011 -0.000007 -0.000004 -0.000003 -0.000002 -0.000001 -0.000001 -0.000000 -0.000000 -0.000000 -0.000000 -0.000000 -0.000000 -0.000000 -0.000000 -0.000000 -0.000000 13196.795520 13196.795520 13196.795520 13222.595883 13804.414797 13229.873410 10935.567046 10646.309771 10415.565737 10188.429113 9609.754805 9364.630931 9058.553598 8448.226386 7867.974712 7695.047319 6823.702810 6121.327120 5754.525734 5057.110992 4153.291242 3630.061774 3360.651152 3036.649440 2761.977169 2698.133611 2509.837870 2158.220784 1801.345611 1510.402896 1279.426967 1092.237390 935.560099 800.903091 683.400120 580.340278 490.086242 411.443985 343.362001 284.822730 234.825665 192.403023 156.639501 126.685987 101.765956 81.176568 64.286781 50.534126 39.420997 30.510740 23.423577 17.832311 13.457820 10.064380 7.454927 5.466373 3.965094 2.842696 2.012119 1.404128 0.964214 0.649889 0.428378 0.274664 0.169856 0.099852 0.054248 0.025465 0.008055 -0.001838 -0.006903 -0.008979 -0.009297 -0.008659 -0.007574 -0.006347 -0.005154 -0.004082 -0.003167 -0.002415 -0.001813 -0.001343 -0.000983 -0.000711 -0.000508 -0.000360 -0.000253 -0.000176 -0.000121 -0.000083 -0.000056 -0.000038 -0.000025 -0.000017 -0.000011 -0.000007 -0.000005 -0.000003 -0.000002 -0.000001 -0.000001 -0.000000 -0.000000 -0.000000 -0.000000 -0.000000 -0.000000 -0.000000 -0.000000 -0.000000 -0.000000 12939.195606 12939.195606 12939.195606 12940.310451 12968.340678 12959.735816 12656.151202 12467.987475 12202.484753 11864.830857 11442.029407 10982.843445 10479.379946 9889.421594 9238.322644 8546.931772 7793.879074 7051.461391 6348.511303 5643.544037 4958.307996 4355.629629 3846.412097 3402.814698 3022.485540 2692.958042 2370.662206 2047.136809 1747.983413 1490.183021 1274.087974 1092.488472 937.529960 803.220466 685.660054 582.449071 492.028387 413.216863 344.964737 286.257174 236.097496 193.521292 157.615413 127.531696 102.493744 81.798393 64.814079 50.977741 39.791145 30.816977 23.674750 18.036519 13.622377 10.195804 7.558945 5.547948 4.028476 2.891476 2.049294 1.432174 0.985150 0.665345 0.439655 0.282788 0.175630 0.103893 0.057029 0.027341 0.009292 -0.001046 -0.006415 -0.008694 -0.009144 -0.008589 -0.007554 -0.006355 -0.005176 -0.004109 -0.003195 -0.002440 -0.001835 -0.001362 -0.000997 -0.000722 -0.000517 -0.000367 -0.000258 -0.000179 -0.000124 -0.000085 -0.000057 -0.000039 -0.000026 -0.000017 -0.000011 -0.000007 -0.000005 -0.000003 -0.000002 -0.000001 -0.000001 -0.000000 -0.000000 -0.000000 -0.000000 -0.000000 -0.000000 -0.000000 -0.000000 -0.000000 -0.000000 12906.582410 12906.582410 12906.582410 12907.438452 12910.878122 12891.381623 12809.945048 12658.775136 12406.612788 12058.834354 11637.303701 11166.232912 10641.278221 10044.513114 9380.454475 8662.013719 7904.238013 7151.902558 6425.913019 5717.450949 5042.157823 4433.661074 3903.279207 3443.025890 3043.764323 2688.014921 2352.301971 2032.029932 1740.175276 1487.233047 1273.384990 1092.625908 937.915025 803.646108 686.067977 582.827564 492.376410 413.534504 345.251983 286.514360 236.325609 193.721919 157.790536 127.683480 102.624383 81.910028 64.908760 51.057410 39.857634 30.871998 23.719889 18.073228 13.651967 10.219443 7.577660 5.562630 4.039887 2.900261 2.055992 1.437229 0.988925 0.668133 0.441690 0.284256 0.176673 0.104624 0.057532 0.027681 0.009516 -0.000903 -0.006327 -0.008642 -0.009116 -0.008576 -0.007550 -0.006357 -0.005180 -0.004114 -0.003200 -0.002445 -0.001839 -0.001365 -0.001000 -0.000724 -0.000519 -0.000368 -0.000259 -0.000180 -0.000124 -0.000085 -0.000058 -0.000039 -0.000026 -0.000017 -0.000011 -0.000007 -0.000005 -0.000003 -0.000002 -0.000001 -0.000001 -0.000000 -0.000000 -0.000000 -0.000000 -0.000000 -0.000000 -0.000000 -0.000000 -0.000000 -0.000000 12906.582410 12906.582410 12906.582410 12907.438452 12910.878122 12891.381623 12809.945048 12658.775136 12406.612788 12058.834354 11637.303701 11166.232912 10641.278221 10044.513114 9380.454475 8662.013719 7904.238013 7151.902558 6425.913019 5717.450949 5042.157823 4433.661074 3903.279207 3443.025890 3043.764323 2688.014921 2352.301971 2032.029932 1740.175276 1487.233047 1273.384990 1092.625908 937.915025 803.646108 686.067977 582.827564 492.376410 413.534504 345.251983 286.514360 236.325609 193.721919 157.790536 127.683480 102.624383 81.910028 64.908760 51.057410 39.857634 30.871998 23.719889 18.073228 13.651967 10.219443 7.577660 5.562630 4.039887 2.900261 2.055992 1.437229 0.988925 0.668133 0.441690 0.284256 0.176673 0.104624 0.057532 0.027681 0.009516 -0.000903 -0.006327 -0.008642 -0.009116 -0.008576 -0.007550 -0.006357 -0.005180 -0.004114 -0.003200 -0.002445 -0.001839 -0.001365 -0.001000 -0.000724 -0.000519 -0.000368 -0.000259 -0.000180 -0.000124 -0.000085 -0.000058 -0.000039 -0.000026 -0.000017 -0.000011 -0.000007 -0.000005 -0.000003 -0.000002 -0.000001 -0.000001 -0.000000 -0.000000 -0.000000 -0.000000 -0.000000 -0.000000 -0.000000 -0.000000 -0.000000 -0.000000 12906.582410 12906.582410 12906.582410 12907.438452 12910.878122 12891.381623 12809.945048 12658.775136 12406.612788 12058.834354 11637.303701 11166.232912 10641.278221 10044.513114 9380.454475 8662.013719 7904.238013 7151.902558 6425.913019 5717.450949 5042.157823 4433.661074 3903.279207 3443.025890 3043.764323 2688.014921 2352.301971 2032.029932 1740.175276 1487.233047 1273.384990 1092.625908 937.915025 803.646108 686.067977 582.827564 492.376410 413.534504 345.251983 286.514360 236.325609 193.721919 157.790536 127.683480 102.624383 81.910028 64.908760 51.057410 39.857634 30.871998 23.719889 18.073228 13.651967 10.219443 7.577660 5.562630 4.039887 2.900261 2.055992 1.437229 0.988925 0.668133 0.441690 0.284256 0.176673 0.104624 0.057532 0.027681 0.009516 -0.000903 -0.006327 -0.008642 -0.009116 -0.008576 -0.007550 -0.006357 -0.005180 -0.004114 -0.003200 -0.002445 -0.001839 -0.001365 -0.001000 -0.000724 -0.000519 -0.000368 -0.000259 -0.000180 -0.000124 -0.000085 -0.000058 -0.000039 -0.000026 -0.000017 -0.000011 -0.000007 -0.000005 -0.000003 -0.000002 -0.000001 -0.000001 -0.000000 -0.000000 -0.000000 -0.000000 -0.000000 -0.000000 -0.000000 -0.000000 -0.000000 -0.000000 12834.201964 12834.201964 12834.201964 12942.770184 14327.701424 15425.444689 12130.148146 10978.768513 12044.275378 7697.607819 9455.228054 8334.493154 6395.262108 6358.553212 6425.012167 4531.359176 4715.888971 3377.806348 -100.853356 -2105.046947 -3177.250084 1883.607946 1265.147869 -3718.222916 -2690.579736 -1072.396797 -3.308792 1040.066466 1961.665424 -49.464618 -1619.051381 -100.729826 1951.071219 1444.842942 -1910.870072 -1018.124671 1474.753167 763.531380 -1855.715403 -1045.427217 713.275796 1330.476851 -941.746093 -1500.486495 -380.785219 713.122285 1232.717997 -593.086528 -1326.076842 -261.761440 -59.082459 -1834.150514 -2351.525485 -1825.860724 -1528.595839 -1350.288474 12552.729429 12552.729429 12552.729429 12670.309251 14515.975139 16235.956824 12365.301450 13383.289776 13784.372457 10457.911277 10036.454187 10204.480387 11442.689109 11570.118048 11568.456763 10623.021531 9116.310100 10989.791468 10796.813708 12371.956787 13967.969004 11109.733089 9563.751775 11357.081872 11388.574956 12200.889819 10885.547298 11301.589770 10990.011190 9985.545471 10994.004164 10263.114848 10703.392397 8652.462186 14002.244529 10750.432794 11161.188089 10215.724727 9648.529795 9236.681863 11410.479701 10162.657213 11820.461933 11615.567368 14193.375485 10577.757707 12064.164224 10227.698164 11599.119430 12516.259021 11914.479534 14950.624057 11837.218999 -176.119346 159.489039 -1993.984438 12134.089482 12134.089482 12134.089482 12009.819654 10647.054451 8418.417217 12791.624490 13018.107626 11251.531074 10736.137272 7691.790735 12821.612106 9267.907397 12026.602324 11407.888740 9536.172975 10502.808281 10963.403330 10913.097809 9219.474159 9051.038197 12247.389700 10027.171495 10714.675127 9350.729485 10692.708487 9732.687908 12786.229086 9704.103488 10054.452780 11410.011901 9115.963180 8266.753486 12305.825580 11577.309043 13285.491575 11575.912270 11021.623240 13060.278952 12438.469761 10036.256874 12558.459549 9651.407922 10558.865637 10515.679753 11026.090187 13511.745480 12915.141495 12463.153460 11446.975050 12133.070483 13046.873809 2635.284853 2064.288826 121.172699 134.106265 11955.667702 11955.667702 11955.667702 11967.764846 12525.409792 14856.058285 13736.257295 16882.299845 12149.824580 10842.148537 12245.028281 11939.991285 10310.006018 10191.761104 12604.753597 9828.942492 10093.167918 9165.911083 8886.863858 9988.424150 11354.206231 12187.438668 8515.794289 12568.316108 8774.335821 11258.403399 10972.188536 11569.843913 7470.827081 9721.698225 7717.604941 12020.850083 7544.988921 8763.039533 5903.278975 8338.822345 7211.600948 10353.587197 11605.186541 10919.247281 11003.223159 13811.344784 7275.127602 12540.681208 11259.704683 11005.700225 10251.350402 11506.884450 6951.555217 10252.663293 5404.271758 9253.637741 3364.687328 3744.771362 -239.824777 469.079195 11879.130827 11879.130827 11879.130827 11811.536063 11546.384055 10189.757602 14518.476218 14367.586861 9187.251566 12850.847521 11511.460059 11545.024533 14096.980674 9047.249570 13232.809639 13297.604853 10547.567808 11685.704950 6763.618142 9826.297237 9646.889061 6467.366113 6861.393397 10631.263486 8579.512322 9358.274450 8786.918391 5566.451288 6198.547602 9239.417330 9120.679087 6654.651938 5216.125565 8146.295927 6123.462485 6213.539194 9370.363427 8966.251269 6200.798752 6881.068131 11088.211631 4991.572884 7557.965119 8593.699086 6218.794483 2700.883486 6567.581