<VTKFile type="PolyData">
<PolyData>
<Piece NumberOfPoints="8632" NumberOfVerts="8632" NumberOfLines="0" NumberOfStrips="0" NumberOfPolys="0">
<PointData>
<DataArray type="Float64" Name="Pressure" format="ascii">
 12620.946205 12620.946205 12620.946205 12621.898525 12632.141200 12653.794421 12647.353087 12575.678591 12411.601260 12158.343835 11841.718943 11487.966039 11095.536447 10641.413229 10120.869488 9550.381177 8958.006973 8372.417115 7798.966119 7218.350756 6616.078066 6004.373621 5412.675153 4832.168806 4223.051437 3582.162930 2963.569768 2434.299279 1996.037767 1565.761900 1138.060772 806.426519 535.992422 237.694569 -16.884223 -131.660514 -127.935437 -88.780208 -102.221812 -198.668292 -300.376016 -342.925349 -352.662122 -394.409156 -518.027851 -689.424249 -830.516823 -957.128270 -1126.728535 -1312.079785 -1432.544250 -1475.034439 -1466.805334 -1430.221788 -1378.627890 -1318.844331 -1254.239727 -1187.336768 -1120.330503 -1054.528295 -990.511061 -928.520704 -868.662760 -810.995611 -755.564055 -702.409246 -651.569215 -603.076192 -556.953409 -513.212513 -471.851960 -432.856395 -396.196871 -361.831687 -329.707646 -299.761532 -271.921681 -246.109527 -222.241079 -200.228273 -179.980186 -161.404126 -144.406579 -128.894050 -114.773781 -101.954386 -90.346388 -79.862682 -70.418922 -61.933846 -54.329528 -47.531577 -41.469281 -36.075697 -31.287688 -27.045926 -23.294848 -19.982584 -17.060876 -14.485001 -12.213787 -10.209877 -8.440658 -6.880602 -5.515634 -4.343116 -3.342188 -2.703030 -2.582783 -2.582783 -2.582783 12620.946205 12620.946205 12620.946205 12621.898525 12632.141200 12653.794421 12647.353087 12575.678591 12411.601260 12158.343835 11841.718943 11487.966039 11095.536447 10641.413229 10120.869488 9550.381177 8958.006973 8372.417115 7798.966119 7218.350756 6616.078066 6004.373621 5412.675153 4832.168806 4223.051437 3582.162930 2963.569768 2434.299279 1996.037767 1565.761900 1138.060772 806.426519 535.992422 237.694569 -16.884223 -131.660514 -127.935437 -88.780208 -102.221812 -198.668292 -300.376016 -342.925349 -352.662122 -394.409156 -518.027851 -689.424249 -830.516823 -957.128270 -1126.728535 -1312.079785 -1432.544250 -1475.034439 -1466.805334 -1430.221788 -1378.627890 -1318.844331 -1254.239727 -1187.336768 -1120.330503 -1054.528295 -990.511061 -928.520704 -868.662760 -810.995611 -755.564055 -702.409246 -651.569215 -603.076192 -556.953409 -513.212513 -471.851960 -432.856395 -396.196871 -361.831687 -329.707646 -299.761532 -271.921681 -246.109527 -222.241079 -200.228273 -179.980186 -161.404126 -144.406579 -128.894050 -114.773781 -101.954386 -90.346388 -79.862682 -70.418922 -61.933846 -54.329528 -47.531577 -41.469281 -36.075697 -31.287688 -27.045926 -23.294848 -19.982584 -17.060876 -14.485001 -12.213787 -10.209877 -8.440658 -6.880602 -5.515634 -4.343116 -3.342188 -2.703030 -2.582783 -2.582783 -2.582783 12620.946205 12620.946205 12620.946205 12621.898525 12632.141200 12653.794421 12647.353087 12575.678591 12411.601260 12158.343835 11841.718943 11487.966039 11095.536447 10641.413229 10120.869488 9550.381177 8958.006973 8372.417115 7798.966119 7218.350756 6616.078066 6004.373621 5412.675153 4832.168806 4223.051437 3582.162930 2963.569768 2434.299279 1996.037767 1565.761900 1138.060772 806.426519 535.992422 237.694569 -16.884223 -131.660514 -127.935437 -88.780208 -102.221812 -198.668292 -300.376016 -342.925349 -352.662122 -394.409156 -518.027851 -689.424249 -830.516823 -957.128270 -1126.728535 -1312.079785 -1432.544250 -1475.034439 -1466.805334 -1430.221788 -1378.627890 -1318.844331 -1254.239727 -1187.336768 -1120.330503 -1054.528295 -990.511061 -928.520704 -868.662760 -810.995611 -755.564055 -702.409246 -651.569215 -603.076192 -556.953409 -513.212513 -471.851960 -432.856395 -396.196871 -361.831687 -329.707646 -299.761532 -271.921681 -246.109527 -222.241079 -200.228273 -179.980186 -161.404126 -144.406579 -128.894050 -114.773781 -101.954386 -90.346388 -79.862682 -70.418922 -61.933846 -54.329528 -47.531577 -41.469281 -36.075697 -31.287688 -27.045926 -23.294848 -19.982584 -17.060876 -14.485001 -12.213787 -10.209877 -8.440658 -6.880602 -5.515634 -4.343116 -3.342188 -2.703030 -2.582783 -2.582783 -2.582783 12629.698901 12629.698901 12629.698901 12630.171227 12637.058286 12655.650534 12649.972097 12577.057475 12405.142785 12142.180285 11821.294370 11479.157508 11106.128870 10658.181391 10136.022497 9558.840191 8957.000457 8369.161305 7802.413660 7225.653369 6622.513730 6003.299640 5420.399935 4852.036546 4236.307727 3569.884857 2927.155989 2393.287988 1982.584180 1531.687917 1047.678071 741.709212 517.406361 200.248598 -80.224872 -179.664856 -143.732019 -72.890700 -67.889431 -197.042759 -320.633533 -351.828684 -338.013447 -361.462392 -503.154093 -708.150419 -835.271654 -945.845960 -1092.569002 -1330.268963 -1463.782402 -1494.305520 -1477.253383 -1436.006674 -1382.135260 -1321.253435 -1255.767321 -1188.103917 -1120.643399 -1054.637643 -990.535861 -928.511323 -868.639521 -810.966574 -755.532409 -702.376285 -651.535521 -603.042093 -556.919150 -513.178313 -471.818026 -432.822924 -396.164041 -361.799659 -329.676559 -299.731501 -271.892798 -246.081866 -222.214694 -200.203200 -179.956447 -161.381728 -144.385521 -128.874318 -114.755354 -101.937234 -90.330476 -79.847969 -70.405365 -61.921395 -54.318132 -47.521184 -41.459837 -36.067146 -31.279976 -27.038996 -23.288642 -19.977038 -17.055902 -14.480456 -12.209378 -10.204944 -8.433674 -6.868441 -5.495332 -4.317563 -3.321892 -2.687528 -2.568413 -2.568413 -2.568413 12724.752111 12724.752111 12724.752111 12721.312811 12699.825574 12701.249370 12726.088483 12643.097108 12360.140529 11940.715199 11522.304376 11327.340214 11217.827590 10813.407357 10276.787207 9624.973514 8890.768262 8282.157964 7823.785420 7318.437050 6700.764732 5965.324122 5505.325286 5107.364500 4367.723230 3350.511258 2360.502590 1814.991568 1936.472386 1104.678223 -305.693141 -109.986537 655.526602 -256.747981 -978.433033 -749.344208 -317.267702 167.264977 471.654095 -234.459632 -705.147433 -467.650239 -169.608155 126.246735 -300.039133 -1071.280009 -951.568899 -566.777258 -607.319839 -1554.640061 -1831.600640 -1706.753919 -1590.604719 -1498.714822 -1420.743758 -1349.890519 -1274.275691 -1196.024861 -1123.759528 -1055.699696 -990.768321 -928.411038 -868.404605 -810.675276 -755.215641 -702.046604 -651.198594 -602.701141 -556.576602 -512.836356 -471.478738 -432.488262 -395.835807 -361.479453 -329.365762 -299.431267 -271.604060 -245.805348 -221.950931 -199.952558 -179.719141 -161.157843 -144.175025 -128.677081 -114.571159 -101.765792 -90.171434 -79.700921 -70.269862 -61.796954 -54.204242 -47.417316 -41.365450 -35.981693 -31.202904 -26.969748 -23.226637 -19.921626 -17.006228 -14.435112 -12.165513 -10.156011 -8.363963 -6.742008 -5.243673 -3.981513 -3.071327 -2.510950 -2.411301 -2.411301 -2.411301 12866.822621 12866.822621 12866.822621 12859.631661 12818.799246 12967.933196 12958.140169 12861.069647 12480.313495 11731.543520 10716.765833 10946.809273 11576.114822 10690.043997 10399.144021 9664.272619 8487.768865 7860.017859 7962.344336 7295.847795 6989.691896 5352.113046 5813.077690 5410.458664 4393.537975 2469.873097 1306.660708 -471.539463 3773.421889 426.123362 -4804.379681 -1140.922768 1631.843488 -1098.538069 -2622.207902 -1498.945816 -525.923199 543.815632 1196.665111 -461.286525 -1378.390604 -655.612631 66.413555 913.615709 161.120485 -1509.204208 -1131.020834 -133.279959 -582.462797 -2340.741407 -2387.887411 -1957.571276 -1724.215597 -1572.569606 -1467.506563 -1391.387404 -1308.986577 -1209.898966 -1128.713697 -1057.428995 -991.234513 -928.376932 -868.169402 -810.356844 -754.860566 -701.673724 -650.816183 -602.313613 -556.187035 -512.447374 -471.092767 -432.107562 -395.462439 -361.115246 -329.012287 -299.089835 -271.275729 -245.490939 -221.651050 -199.667616 -179.449380 -160.903355 -143.935773 -128.452915 -114.361831 -101.570970 -89.990716 -79.533844 -70.115914 -61.655584 -54.074869 -47.299337 -41.258248 -35.884643 -31.115375 -26.891097 -23.156185 -19.858580 -16.949484 -14.382729 -12.113361 -10.094221 -8.267252 -6.540314 -4.703466 -3.363391 -2.679392 -2.269788 -2.194857 -2.194857 -2.194857 -3.107480 -2.517618 -2.207051 -2.165101 -2.165101 -2.165101 -2.533360 -2.201117 -1.992767 -1.964289 -1.964289 -1.964289 -1.878217 -1.765830 -1.673429 -1.660373 -1.660373 -1.660373 -1.469482 -1.427944 -1.392120 -1.386827 -1.386827 -1.386827 -1.177330 -1.163198 -1.151409 -1.149732 -1.149732 -1.149732 -0.953840 -0.950462 -0.948375 -0.948179 -0.948179 -0.948179 -0.776179 -0.776884 -0.778437 -0.778791 -0.778791 -0.778791 -0.632168 -0.634244 -0.636939 -0.637455 -0.637455 -0.637455 -0.514396 -0.516757 -0.519600 -0.520124 -0.520124 -0.520124 -0.417781 -0.420015 -0.422638 -0.423114 -0.423114 -0.423114 -0.338513 -0.340485 -0.342774 -0.343188 -0.343188 -0.343188 -0.273569 -0.275254 -0.277201 -0.277552 -0.277552 -0.277552 -0.220478 -0.221894 -0.223526 -0.223819 -0.223819 -0.223819 -0.177190 -0.178368 -0.179724 -0.179968 -0.179968 -0.179968 -0.141994 -0.142967 -0.144088 -0.144289 -0.144289 -0.144289 -0.113461 -0.114261 -0.115183 -0.115349 -0.115349 -0.115349 -0.090398 -0.091054 -0.091809 -0.091945 -0.091945 -0.091945 -0.071814 -0.072349 -0.072966 -0.073077 -0.073077 -0.073077 -0.056883 -0.057319 -0.057821 -0.057911 -0.057911 -0.057911 -0.044925 -0.045278 -0.045685 -0.045758 -0.045758 -0.045758 -0.035377 -0.035662 -0.035991 -0.036050 -0.036050 -0.036050 -0.027776 -0.028005 -0.028270 -0.028318 -0.028318 -0.028318 -0.021743 -0.021928 -0.022140 -0.022179 -0.022179 -0.022179 -0.016971 -0.017119 -0.017289 -0.017319 -0.017319 -0.017319 -0.013207 -0.013325 -0.013460 -0.013485 -0.013485 -0.013485 -0.010247 -0.010341 -0.010449 -0.010468 -0.010468 -0.010468 -0.007927 -0.008001 -0.008087 -0.008102 -0.008102 -0.008102 -0.006114 -0.006173 -0.006240 -0.006253 -0.006253 -0.006253 -0.004702 -0.004748 -0.004801 -0.004811 -0.004811 -0.004811 -0.003605 -0.003641 -0.003683 -0.003690 -0.003690 -0.003690 -0.002756 -0.002784 -0.002817 -0.002823 -0.002823 -0.002823 -0.002100 -0.002122 -0.002148 -0.002152 -0.002152 -0.002152 -0.001596 -0.001613 -0.001633 -0.001636 -0.001636 -0.001636 -0.001209 -0.001222 -0.001238 -0.001240 -0.001240 -0.001240 -0.000913 -0.000923 -0.000935 -0.000937 -0.000937 -0.000937 -0.000688 -0.000696 -0.000705 -0.000706 -0.000706 -0.000706 -0.000516 -0.000522 -0.000529 -0.000531 -0.000531 -0.000531 -0.000387 -0.000391 -0.000397 -0.000397 -0.000397 -0.000397 -0.000288 -0.000292 -0.000296 -0.000297 -0.000297 -0.000297 -0.000215 -0.000217 -0.000220 -0.000221 -0.000221 -0.000221 -0.000159 -0.000161 -0.000164 -0.000164 -0.000164 -0.000164 -0.000118 -0.000119 -0.000121 -0.000121 -0.000121 -0.000121 -0.000087 -0.000088 -0.000089 -0.000090 -0.000090 -0.000090 -0.000064 -0.000065 -0.000066 -0.000066 -0.000066 -0.000066 -0.000047 -0.000047 -0.000048 -0.000048 -0.000048 -0.000048 -0.000034 -0.000035 -0.000035 -0.000035 -0.000035 -0.000035 -0.000025 -0.000025 -0.000026 -0.000026 -0.000026 -0.000026 -0.000018 -0.000018 -0.000019 -0.000019 -0.000019 -0.000019 -0.000013 -0.000013 -0.000014 -0.000014 -0.000014 -0.000014 -0.000009 -0.000010 -0.000010 -0.000010 -0.000010 -0.000010 -0.000007 -0.000007 -0.000007 -0.000007 -0.000007 -0.000007 -0.000005 -0.000005 -0.000005 -0.000005 -0.000005 -0.000005 -0.000004 -0.000004 -0.000004 -0.000004 -0.000004 -0.000004 -0.000002 -0.000003 -0.000003 -0.000003 -0.000003 -0.000003 -0.000002 -0.000002 -0.000002 -0.000002 -0.000002 -0.000002 -0.000001 -0.000001 -0.000001 -0.000001 -0.000001 -0.000001 -0.000001 -0.000001 -0.000001 -0.000001 -0.000001 -0.000001 -0.000001 -0.000001 -0.000001 -0.000001 -0.000001 -0.000001 -0.000000 -0.000000 -0.000000 -0.000000 -0.000000 -0.000000 -0.000000 -0.000000 -0.000000 -0.000000 -0.000000 -0.000000 -0.000000 -0.000000 -0.000000 -0.000000 -0.000000 -0.000000 -0.000000 -0.000000 -0.000000 -0.000000 -0.000000 -0.000000 -0.000000 -0.000000 -0.000000 -0.000000 -0.000000 -0.000000 -0.000000 -0.000000 -0.000000 -0.000000 -0.000000 -0.000000 -0.000000 -0.000000 -0.000000 -0.000000 -0.000000 -0.000000 -0.000000 -0.000000 -0.000000 -0.000000 -0.000000 -0.000000 -0.000000 -0.000000 -0.000000 -0.000000 -0.000000 -0.000000 -0.000000 -0.000000 -0.000000 -0.000000 -0.000000 -0.000000 -0.000000 -0.000000 -0.000000 -0.000000 -0.000000 -0.000000 -0.000000 -0.000000 -0.000000 -0.000000 -0.000000 -0.000000 -0.000000 -0.000000 -0.000000 -0.000000 -0.000000 -0.000000 -0.000000 -0.000000 -0.000000 -0.000000 -0.000000 -0.000000 -0.000000 -0.000000 -0.000000 -0.000000 -0.000000 -0.000000 -0.000000 -0.000000 -0.000000 -0.000000 -0.000000 -0.000000 -0.000000 -0.000000 -0.000000 -0.000000 -0.000000 -0.000000 -0.000000 -0.000000 -0.000000 0.000000 0.000000 0.000000 -0.000000 -0.000000 -0.000000 0.000000 0.000000 0.000000 -0.000000 -0.000000 -0.000000 0.000000 0.000000 0.000000 -0.000000 -0.000000 -0.000000 0.000000 0.000000 0.000000 -0.000000 -0.000000 -0.000000 0.000000 0.000000 0.000000 -0.000000 -0.000000 -0.000000 0.000000 0.000000 0.000000 -0.000000 -0.000000 -0.000000 0.000000 0.000000 0.000000 -0.000000 -0.000000 -0.000000 0.000000 0.000000 0.000000 -0.000000 -0.000000 -0.000000 0.000000 0.000000 0.000000 -0.000000 -0.000000 -0.000000 0.000000 0.000000 0.000000 -0.000000 -0.000000 -0.000000 0.000000 0.000000 0.000000 -0.000000 -0.000000 -0.000000 0.000000 0.000000 0.000000 -0.000000 -0.000000 -0.000000 0.000000 0.000000 0.000000 -0.000000 -0.000000 -0.000000 0.000000 0.000000 0.000000 -0.000000 -0.000000 -0.000000 0.000000 0.000000 0.000000 -0.000000 -0.000000 -0.000000 0.000000 0.000000 0.000000 -0.000000 -0.000000 -0.000000 0.000000 0.000000 0.000000 -0.000000 -0.000000 -0.000000 0.000000 0.000000 0.000000 -0.000000 -0.000000 -0.000000 0.000000 0.000000 0.000000 -0.000000 -0.000000 -0.000000 0.000000 0.000000 0.000000 -0.000000 -0.000000 -0.000000 0.000000 0.000000 0.000000 -0.000000 -0.000000 -0.000000 0.000000 0.000000 0.000000 -0.000000 -0.000000 -0.000000 0.000000 0.000000 0.000000 -0.000000 -0.000000 -0.000000 0.000000 0.000000 0.000000 -0.000000 -0.000000 -0.000000 0.000000 0.000000 0.000000 -0.000000 -0.000000 -0.000000 0.000000 0.000000 0.000000 -0.000000 -0.000000 -0.000000 0.000000 0.000000 0.000000 -0.000000 -0.000000 -0.000000 0.000000 0.000000 0.000000 -0.000000 -0.000000 -0.000000 0.000000 0.000000 0.000000 -0.000000 -0.000000 -0.000000 0.000000 0.000000 0.000000 -0.000000 -0.000000 -0.000000 0.000000 0.000000 0.000000 -0.000000 -0.000000 -0.000000 0.000000 0.000000 0.000000 -0.000000 -0.000000 -0.000000 0.000000 0.000000 0.000000 -0.000000 -0.000000 -0.000000 0.000000 0.000000 0.000000 -0.000000 -0.000000 -0.000000 0.000000 0.000000 0.000000 -0.000000 -0.000000 -0.000000 0.000000 0.000000 0.000000 -0.000000 -0.000000 -0.000000 0.000000 0.000000 0.000000 -0.000000 -0.000000 -0.000000 0.000000 0.000000 0.000000 -0.000000 -0.000000 -0.000000 0.000000 0.000000 0.000000 -0.000000 -0.000000 -0.000000 0.000000 0.000000 0.000000 -0.000000 -0.000000 -0.000000 0.000000 0.000000 0.000000 -0.000000 -0.000000 -0.000000 0.000000 0.000000 0.000000 -0.000000 -0.000000 -0.000000 0.000000 0.000000 0.000000 -0.000000 -0.000000 -0.000000 0.000000 0.000000 0.000000 -0.000000 -0.000000 -0.000000 0.000000 0.000000 0.000000 -0.000000 -0.000000 -0.000000 0.000000 0.000000 0.000000 -0.000000 -0.000000 -0.000000 0.000000 0.000000 0.000000 -0.000000 -0.000000 -0.000000 0.000000 0.000000 0.000000 -0.000000 -0.000000 -0.000000 0.000000 0.000000 0.000000 -0.000000 -0.000000 -0.000000 0.000000 0.000000 0.000000 -0.000000 -0.000000 -0.000000 0.000000 0.000000 0.000000 -0.000000 -0.000000 -0.000000 0.000000 0.000000 0.000000 -0.000000 -0.000000 -0.000000 0.000000 0.000000 0.000000 -0.000000 -0.000000 -0.000000 0.000000 0.000000 0.000000 -0.000000 -0.000000 -0.000000 0.000000 0.000000 0.000000 -0.000000 -0.000000 -0.000000 0.000000 0.000000 0.000000 -0.000000 -0.000000 -0.000000 0.000000 0.000000 0.000000 -0.000000 -0.000000 -0.000000 0.000000 0.000000 0.000000 -0.000000 -0.000000 -0.000000 0.000000 0.000000 0.000000 -0.000000 -0.000000 -0.000000 0.000000 0.000000 0.000000 -0.000000 -0.000000 -0.000000 0.000000 0.000000 0.000000 -0.000000 -0.000000 -0.000000 0.000000 0.000000 0.000000 0.000000 -0.000000 -0.000000 0.000000 0.000000 0.000000 0.000000 -0.000000 0.000000 0.000000 0.000000 0.000000 0.000000 0.000000 0.000000 0.000000 0.000000 0.000000 0.000000 0.000000 0.000000 0.000000 0.000000 0.000000 0.000000 0.000000 0.000000 0.000000 0.000000 0.000000 0.000000 0.000000 0.000000 0.000000 0.000000 0.000000 0.000000 0.000000 0.000000 0.000000 0.000000 0.000000 0.000000 0.000000 0.000000 0.000000 0.000000 0.000000 0.000000 0.000000 0.000000 0.000000 0.000000 0.000000 0.000001 0.000001 0.000001 0.000001 0.000001 0.000001 0.000002 0.000002 0.000002 0.000002 0.000002 0.000002 0.000004 0.000004 0.000004 0.000004 0.000004 0.000004 0.000008 0.000008 0.000009 0.000009 0.000009 0.000009 0.000017 0.000018 0.000019 0.000020 0.000020 0.000020 0.000035 0.000037 0.000040 0.000041 0.000041 0.000041 0.000071 0.000076 0.000082 0.000083 0.000083 0.000083 0.000143 0.000153 0.000164 0.000166 0.000166 0.000166 0.000283 0.000301 0.000322 0.000325 0.000325 0.000325 0.000548 0.000580 0.000618 0.000625 0.000625 0.000625 0.001039 0.001096 0.001163 0.001175 0.001175 0.001175 0.001931 0.002029 0.002145 0.002166 0.002166 0.002166 0.003515 0.003681 0.003878 0.003913 0.003913 0.003913 0.006268 0.006543 0.006867 0.006926 0.006926 0.006926 0.010947 0.011390 0.011910 0.012005 0.012005 0.012005 0.018718 0.019414 0.020228 0.020376 0.020376 0.020376 0.031327 0.032392 0.033633 0.033858 0.033858 0.033858 0.051309 0.052892 0.054732 0.055065 0.055065 0.055065 0.082211 0.084496 0.087144 0.087621 0.087621 0.087621 0.128817 0.132013 0.135705 0.136371 0.136371 0.136371 0.197310 0.201633 0.206611 0.207506 0.207506 0.207506 0.295295 0.300930 0.307398 0.308559 0.308559 0.308559 0.431578 0.438626 0.446688 0.448133 0.448133 0.448133 0.615572 0.623975 0.633554 0.635266 0.635266 0.635266 0.856210 0.865663 0.876394 0.878308 0.878308 0.878308 1.160259 1.170115 1.181245 1.183224 1.183224 1.183224 1.530017 1.539206 1.549502 1.551325 1.551325 1.551325 1.960477 1.967458 1.975158 1.976508 1.976508 1.976508 2.436208 2.438992 2.441835 2.442309 2.442309 2.442309 2.928411 2.924673 2.920030 2.919160 2.919160 2.919160 3.392759 3.380066 3.365201 3.362503 3.362503 3.362503 3.768781 3.744934 3.717393 3.712432 3.712432 3.712432 3.981537 3.945005 3.903106 3.895588 3.895588 3.895588 3.946190 3.896585 3.839950 3.829814 3.829814 3.829814 3.575718 3.514231 3.444266 3.431769 3.431769 3.431769 2.791469 2.721166 2.641392 2.627166 2.627166 2.627166 1.535635 1.461517 1.377624 1.362684 1.362684 1.362684 -0.215952 -0.287204 -0.367654 -0.381959 -0.381959 -0.381959 -2.442773 -2.503391 -2.571633 -2.583748 -2.583748 -2.583748 -5.072564 -5.114587 -5.161671 -5.170005 -5.170005 -5.170005 -7.980219 -7.996589 -8.014597 -8.017750 -8.017750 -8.017750 -10.993922 -10.979597 -10.962894 -10.959869 -10.959869 -10.959869 -13.908603 -13.861494 -13.807769 -13.798160 -13.798160 -13.798160 -16.505505 -16.427050 -16.337949 -16.322051 -16.322051 -16.322051 -18.575386 -18.470623 -18.351823 -18.330644 -18.330644 -18.330644 -19.941929 -19.819057 -19.679752 -19.654920 -19.654920 -19.654920 -20.481644 -20.351179 -20.203109 -20.176699 -20.176699 -20.176699 -20.136875 -20.010714 -19.867043 -19.841369 -19.841369 -19.841369 -18.919487 -18.810429 -18.685033 -18.662504 -18.662504 -18.662504 -16.903960 -16.826707 -16.734807 -16.717992 -16.717992 -16.717992 -14.209295 -14.185118 -14.146943 -14.139074 -14.139074 -14.139074 -10.967691 -11.038916 -11.089156 -11.095241 -11.095241 -11.095241 -7.268296 -7.547114 -7.752203 -7.779500 -7.779500 -7.779500 -3.025050 -3.908929 -4.328826 -4.383468 -4.383468 -4.383468 22220.972052 22220.972052 22220.972052 22128.846821 20743.665725 22882.627216 28287.801527 25626.036131 25095.749407 26400.738948 26347.763792 26998.051617 25297.492189 24833.211166 24521.758796 24810.789713 24033.966561 21579.287192 23747.271097 22410.584145 20702.400973 19240.423659 19637.288932 17213.028608 12771.784616 11731.431583 13575.154600 15985.755386 16655.366835 17043.004187 14077.825592 5986.406605 7922.144095 10296.475590 4120.389084 8612.150286 7243.675327 6166.831990 12183.840086 7120.913540 2190.146471 -3061.115267 14823.266143 5784.130507 -2755.968687 -6717.988972 -3799.694733 -1812.258014 -306.586067 1619.453922 3576.835832 -587.364985 -3554.653429 -1986.335583 -1130.870230 -737.398324 -525.020521 -390.686861 -289.814550 -204.591118 -129.375852 -63.663255 -8.547481 34.974239 66.675774 87.213913 97.959220 100.720600 97.466772 90.098297 80.290573 69.407470 58.474140 48.193067 38.987227 31.056483 24.436606 19.053715 14.770029 11.419226 8.831504 6.849527 5.337048 4.182107 3.296625 2.613908 2.085189 1.676026 1.363022 1.131090 0.971314 0.879319 0.853993 0.896390 1.008614 1.192530 1.448170 1.771723 2.152994 2.572062 2.994357 3.362075 3.576133 3.454636 2.550359 0.895947 -0.243535 -0.820217 -0.924599 -0.924599 -0.924599 21922.783748 21922.783748 21922.783748 21906.417530 21989.720172 24583.806839 26846.168526 24556.353189 24705.750090 24084.860282 23934.594449 24126.063989 23620.641500 23465.936684 22714.523479 22765.614883 22366.278328 20786.218622 21280.938330 20622.278338 19306.489317 18119.893685 18459.650964 16739.290040 14591.465876 14415.983516 14166.235703 14392.989359 15023.091952 14919.211898 13926.081614 10752.713275 10485.467891 10234.345142 9005.759317 8442.023520 8325.992264 7218.932817 7404.392474 6987.401055 5708.904296 3952.238238 6558.544343 6422.580837 3211.655283 -601.467897 -929.401312 -462.420842 156.839100 818.449246 1245.792725 -66.207486 -1167.432992 -977.481485 -729.747422 -554.218918 -437.788396 -348.002043 -268.668328 -194.270744 -124.721194 -62.060122 -8.578877 34.129688 65.514067 86.033134 96.926883 99.915348 96.907914 89.768125 80.151224 69.413167 58.579474 48.358001 39.179571 31.252532 24.620575 19.216505 14.907703 11.531491 8.920370 6.918229 5.389248 4.221373 3.326133 2.636305 2.102579 1.690027 1.374845 1.141635 0.981245 0.889118 0.863991 0.906775 1.019427 1.203675 1.459482 1.783194 2.165366 2.588250 3.022768 3.424425 3.727018 3.834302 3.655335 3.230831 2.810232 2.562318 2.514727 2.514727 2.514727 21760.630580 21760.630580 21760.630580 21760.722668 21804.091745 22177.372795 22404.657086 22167.043362 22360.588848 22232.420558 22144.272748 22031.173830 21705.686501 21327.669994 20833.010244 20361.809653 19801.106891 19192.695451 18700.914543 18202.745855 17608.148926 17061.993741 16640.314365 16170.942076 15667.583404 15283.671913 14913.035864 14479.718679 14069.168108 13653.265499 13086.899759 12271.533119 11542.386223 10891.934329 10140.444907 9407.930342 8697.474456 7999.522583 7346.486325 6552.756503 5714.391244 5039.481364 4727.310216 4135.510988 2992.778043 1782.549157 1015.994788 683.201206 602.563381 606.544634 503.687952 179.184790 -168.747427 -344.056903 -394.357917 -390.026049 -357.627734 -308.485319 -249.091197 -184.810118 -120.608272 -60.857103 -8.943545 32.992365 64.095202 84.633410 95.716991 98.974796 96.253916 89.378384 79.981717 69.411351 58.693360 48.541719 39.396145 31.474625 24.829873 19.402334 15.065316 11.660350 9.022614 6.997442 5.449549 4.266805 3.360311 2.662259 2.122729 1.706235 1.388515 1.153807 0.992686 0.900383 0.875459 0.918652 1.031742 1.216282 1.472119 1.795689 2.178192 2.603852 3.048631 3.479968 3.858566 4.144776 4.313985 4.377929 4.379947 4.343482 4.323094 4.323094 4.323094 21737.815573 21737.815573 21737.815573 21740.018015 21767.946946 21860.952569 21951.561706 21987.440127 22014.219456 22011.033430 21963.587186 21794.547279 21471.716347 21055.880887 20589.385848 20093.631262 19546.110809 18979.318180 18462.325862 17955.036652 17422.561530 16919.886406 16493.707039 16087.668543 15691.148183 15334.122684 14950.688389 14493.642078 14012.598331 13527.296708 12984.557522 12328.593257 11653.582928 10983.190796 10274.036516 9545.962926 8825.561657 8117.027413 7398.442905 6608.337103 5801.931567 5120.248366 4610.063215 3981.487389 3049.710575 2036.715362 1274.663096 851.548220 674.198322 592.216688 456.484057 202.526298 -74.519131 -260.269309 -345.620500 -364.927101 -345.179976 -302.316010 -246.034179 -183.343453 -119.988920 -60.702504 -9.040493 32.772213 63.832420 84.377964 95.497444 98.804395 96.135285 89.307343 79.950319 69.410171 58.713083 48.574122 39.434590 31.514190 24.867252 19.435587 15.093567 11.683482 9.040994 7.011700 5.460414 4.274999 3.366480 2.666945 2.126366 1.709160 1.390979 1.155999 0.994744 0.902408 0.877517 0.920780 1.033943 1.218526 1.474352 1.797864 2.180356 2.606356 3.052604 3.488360 3.878214 4.189125 4.402275 4.523198 4.576278 4.570912 4.562975 4.562975 4.562975 21737.815573 21737.815573 21737.815573 21740.018015 21767.946946 21860.952569 21951.561706 21987.440127 22014.219456 22011.033430 21963.587186 21794.547279 21471.716347 21055.880887 20589.385848 20093.631262 19546.110809 18979.318180 18462.325862 17955.036652 17422.561530 16919.886406 16493.707039 16087.668543 15691.148183 15334.122684 14950.688389 14493.642078 14012.598331 13527.296708 12984.557522 12328.593257 11653.582928 10983.190796 10274.036516 9545.962926 8825.561657 8117.027413 7398.442905 6608.337103 5801.931567 5120.248366 4610.063215 3981.487389 3049.710575 2036.715362 1274.663096 851.548220 674.198322 592.216688 456.484057 202.526298 -74.519131 -260.269309 -345.620500 -364.927101 -345.179976 -302.316010 -246.034179 -183.343453 -119.988920 -60.702504 -9.040493 32.772213 63.832420 84.377964 95.497444 98.804395 96.135285 89.307343 79.950319 69.410171 58.713083 48.574122 39.434590 31.514190 24.867252 19.435587 15.093567 11.683482 9.040994 7.011700 5.460414 4.274999 3.366480 2.666945 2.126366 1.709160 1.390979 1.155999 0.994744 0.902408 0.877517 0.920780 1.033943 1.218526 1.474352 1.797864 2.180356 2.606356 3.052604 3.488360 3.878214 4.189125 4.402275 4.523198 4.576278 4.570912 4.562975 4.562975 4.562975 21737.815573 21737.815573 21737.815573 21740.018015 21767.946946 21860.952569 21951.561706 21987.440127 22014.219456 22011.033430 21963.587186 21794.547279 21471.716347 21055.880887 20589.385848 20093.631262 19546.110809 18979.318180 18462.325862 17955.036652 17422.561530 16919.886406 16493.707039 16087.668543 15691.148183 15334.122684 14950.688389 14493.642078 14012.598331 13527.296708 12984.557522 12328.593257 11653.582928 10983.190796 10274.036516 9545.962926 8825.561657 8117.027413 7398.442905 6608.337103 5801.931567 5120.248366 4610.063215 3981.487389 3049.710575 2036.715362 1274.663096 851.548220 674.198322 592.216688 456.484057 202.526298 -74.519131 -260.269309 -345.620500 -364.927101 -345.179976 -302.316010 -246.034179 -183.343453 -119.988920 -60.702504 -9.040493 32.772213 63.832420 84.377964 95.497444 98.804395 96.135285 89.307343 79.950319 69.410171 58.713083 48.574122 39.434590 31.514190 24.867252 19.435587 15.093567 11.683482 9.040994 7.011700 5.460414 4.274999 3.366480 2.666945 2.126366 1.709160 1.390979 1.155999 0.994744 0.902408 0.877517 0.920780 1.033943 1.218526 1.474352 1.797864 2.180356 2.606356 3.052604 3.488360 3.878214 4.189125 4.402275 4.523198 4.576278 4.570912 4.562975 4.562975 4.562975 12888.923309 12888.923309 12888.923309 12882.575082 12847.845764 13003.959496 12991.152939 12937.038154 12611.676656 11922.273410 10696.279937 10905.347244 11650.324773 10572.837762 10431.608674 9672.953841 8357.349484 7745.928982 7999.653913 7294.895523 7237.022762 5247.605194 5834.268612 5335.961437 4383.014327 2083.781792 954.759243 -1261.111039 4531.262586 353.324070 -6232.767165 -1423.306681 1785.997609 -1245.357429 -2856.682509 -1571.760282 -541.899614 569.877582 1223.662911 -513.328477 -1438.153805 -671.893311 84.833136 984.829415 248.843393 -1498.018806 -1139.586431 -153.490516 -745.741653 -2508.627938 -2445.594209 -1975.972440 -1733.909728 -1577.922253 -1471.002912 -1395.319982 13074.632280 13074.632280 13074.632280 13084.376771 12725.111608 12939.673785 13175.937358 14704.931966 11846.835442 10281.529213 11224.241552 12584.900787 14970.019193 13901.066709 11169.255167 14418.643792 14048.854228 12248.880204 14628.148883 13790.946751 13129.918537 13050.423925 15307.486135 12690.701417 15386.895539 14458.136674 13921.766379 13085.674771 12641.268097 13012.951033 14119.635769 13114.580329 13847.773020 15330.628612 14567.137866 13926.828395 11438.247118 13135.318469 14221.444514 13765.511499 15345.549945 13178.458808 13594.745767 13730.109945 15545.769401 14416.928143 13800.037754 14084.676723 14504.550249 14423.845100 14904.872491 13799.666176 12539.953960 4672.773456 -588.756619 -58.167031 13407.480699 13407.480699 13407.480699 13418.736213 13278.342280 13691.043026 12187.387202 12371.283567 12625.886334 13108.172835 12180.326882 11520.619946 13652.411303 11202.350483 11412.347182 11362.224730 11328.182143 13140.889719 13022.455605 12456.299636 12488.472889 12554.928763 11761.334795 12632.284492 13131.085512 13517.409456 11303.752023 13271.053289 15123.156208 12952.338952 12757.059352 13292.564313 16186.602772 13276.029089 12948.213212 14942.191852 13365.158414 12877.329139 14496.645321 13400.047590 15053.444953 11874.940804 12992.872347 14618.565317 14864.235034 13254.711471 13373.829468 15017.803823 14440.759453 14714.300828 16614.446318 17012.691926 5844.768861 10205.034235 720.248101 150.378619 13699.487058 13699.487058 13699.487058 13769.343093 14090.225579 13936.774184 12932.478045 14007.811955 10371.256846 11343.786315 9803.607651 10520.507425 10252.444416 13363.281978 12568.596641 11705.106431 15085.845857 14949.225172 12073.968632 13126.406796 14874.383734 12286.644366 11701.480496 16138.442391 13676.439092 13429.197051 13153.697586 12678.999201 15183.018759 16315.133881 14350.770773 11626.808417 17027.606264 16060.488802 15894.742849 16628.408384 16744.569701 14827.581924 14695.087309 13304.667830 13181.580712 15136.706974 16216.927553 14276.654609 14849.270807 14041.868871 10886.461716 11695.402371 16883.600224 15469.424942 11374.105755 15095.072889 1654.696726 13689.387567 2