<VTKFile type="PolyData">
<PolyData>
<Piece NumberOfPoints="3136" NumberOfVerts="3136" NumberOfLines="0" NumberOfStrips="0" NumberOfPolys="0">
<PointData>
<DataArray type="Float64" Name="Pressure" format="ascii">
 -nan -nan -nan 2811896171672865503000988116935309868530096739248135250894162777603780799818712450452714540467700848911108222905400639397937527827422248960.000000 -1687807595656648894118729678227537195563998216344854993546187695892805615310210801948113404599002200833017859704358801323282595809699960154946026009717419259532116708294656.000000 -nan -nan 2171664051918631469178604333921674655497715712.000000 638071963747207358860840852200775681649355756929024.000000 -4753067141021212810539443197261925553329523392512.000000 128581029337049058897864219204182343680.000000 107846355426544067540952091043921641854867689101184488513476716960780104241706603457832908819176033755199077130520313534942211063923922774719539860190789632.000000 -3084774973752270751374926003047884939259774869761338884790053104789970822622468371267988363276693477596103529681875948937375392530264112774884364557459436707184432398729216.000000 -nan -nan 2171658466314245971692846124707377569410842624.000000 638071582314790639400097721226144804571563344003072.000000 -4753360487926953196888986496090835626646522822656.000000 127514751846807993608238859258679001088.000000 -nan 2171671925956961787683325689272073099350638592.000000 638071582314795042467833758759973798432450522644480.000000 -4753360487926973317039313318547896182319798550528.000000 127514751846807559150522435251319341056.000000 -nan 2171677511579907591432325519268384165419024384.000000 638071963743943190286941781603134213949013568258048.000000 -4753067140997123149264270864479358315610106757120.000000 128581029336421399723893048919539580928.000000 107846355426245616070889761189708363695638119345803204308415874420104627436125964318587681135263927769347876127326620059036736619408672693975848137296707584.000000 -3084774973751448262805271604371408670270284930336494790573154685010607748469264703375327531610948543419156779158007731623066800729960540096697148507072642681419803175944192.000000 -nan -nan 2171658466314130298575575298774490995243352064.000000 638071582314795042467833758759973798432450522644480.000000 -4753360487926973317039313318547896182319798550528.000000 127514751846807559150522435251319341056.000000 -nan 2171677511537769934742789002790582628344922112.000000 638071963731520973129083586870153741555104875544576.000000 -4753067140907326918355662238618098345780533264384.000000 128581029334017582957850879155702333440.000000 107846355425534486552645323811438468293972131495178802122261007563549812460383667341524078215604869392079887973679081969212647882329721539970170421059256320.000000 -3084774973751004196206631905555470778562344352712752673977176664941937544114248638550651495735076865342401491316482637767923664311956263768098416836676016798964721670684672.000000 -nan -nan 2171658466314130298575575298774490995243352064.000000 638071582314795042467833758759973798432450522644480.000000 -4753360487926973317039313318547896182319798550528.000000 127514751846807559150522435251319341056.000000 -nan 2167326906087677354942753237320357597864263680.000000 649625898317215198300004824507807007309323871191040.000000 -4765788566029214715376610385185381168233276506112.000000 91940976114494434069614556798832970585293717504.000000 -nan -nan -nan -nan -140804752463723259303160568014254431177630404377370238648320.000000 -nan -nan -nan -nan -nan 371410239465229982024602436609672266498157580130233713888375865344.000000 -420425947428005530717493405089208991744.000000 -190939466892253575709564007382667134054555979850827708760064.000000 -107929469391374902617420750326803729453821432779461321818112.000000 -nan -nan -nan -nan 371410561485541992695803368396523319129898806339412947752470970368.000000 -420723582189946311964483009945442189312.000000 -nan -nan -nan 371410561485545827676099724685780685598899853866056524919463739392.000000 -420723582189946311964483009945442189312.000000 -nan -nan -nan 371410239463016029192294992985837250936686984230473963787513757696.000000 -420425947426234832181076602919881539584.000000 -190939466893518563180205458449747606137853685508892941877248.000000 -107929469395330720304462104912765042839615162385199657910272.000000 -nan -nan -nan -nan 371410561485545827676099724685780685598899853866056524919463739392.000000 -420723582189946311964483009945442189312.000000 -nan -nan -nan 371410239454532070647654594781781588630162269952692061612839796736.000000 -420425947419627070324654217593907838976.000000 -190939466897207730856907982374805576940261358656104270135296.000000 -107929469394874803869623344853259486615249139282571394285568.000000 -nan -nan -nan -nan 371410561485545827676099724685780685598899853866056524919463739392.000000 -420723582189946311964483009945442189312.000000 -nan -nan -nan 325470464476533426403974586925913211559427951496310968237001015296.000000 -358280233118084926862147450581181988899266594171296993521484160393631577356744446959804727289607111273609077608623988371347362866230602009742459603824834585991531027543511555536110590667406139022995904985491762752397853388473194278360851092445198114288829151385483289473056768.000000 224531594957989717015388358846823815503536700340033793381651162051408120084881908508839188717224297213099637869899135511236976978193300597815988634583791444710001737728.000000 -nan -nan -nan -nan -nan -nan -nan -nan -nan 320576446948178540968543697310816618766814170064082476805764520192818464427463716401509901567671911273881570826181312866392785917874418769519368439557716025775224295268089345484412137852992122424273624192193139162650627567145355437912749595707338415165219092299776.000000 -nan -nan -nan -nan -nan -nan -nan 243212681793793441903530171681239578985237460078277884507666223810963546989990284721821811659143736166531616672212367115687405383045357430436948512231884643630600178921359282412092517601094066683094844088839116178951228402078927267310005453270344041987258162610176.000000 -26118172620218657727638685834236642976108679801077760.000000 -nan -nan -nan 126510549690282229361507268290886341643204543116508080373001662984157747373060729832224661428799768780217224679072213232855142901428097299133808803001054562601848800344821890928911728149900441956567510756190729239133486505477529017778255535975186958410709739765760.000000 -26118172620218790650438264325823933356814707835535360.000000 -nan -nan -nan 164768654837133131418263249159690641915664167057300985443393683553211285152082906306859216601062864197071994946229643834886864792552476021537546483107633317871280644947593410782248181938813347803027674959572119957956360133565173243862553519315004432479517354754048.000000 -nan -nan -nan -nan -nan -nan -nan 243212681793811369186158826417696641915414692081669049190097240791697308678719954049973599951688795079826922909310658345614562979549818063628106016171791855800221900499031888615638820994607302053806375363639480505753256281672317962119440920839775140603015242711040.000000 -26118172620218790650438264325823933356814707835535360.000000 -nan -nan -nan 164768654818721951997032874246808518574740325721247174563981295954152334740041130860714853794514700795938318668102790100865491790868476409984711602220273589811501303254875768025713678730467215181900590304924012216258142985221520865639484608407623650966073759498240.000000 -nan -nan -nan -nan -nan -nan -nan 243212681793808880062673724590013835985951706670901789195188722053342699021470436779762197209042133233831162760945997004797843750081960034994700372099012227277450709827560965133399162645117944880649860100835685770830665827251394761124059085249011696333432746409984.000000 -26118172620218790650438264325823933356814707835535360.000000 -nan -nan -nan -27441152663490849357424395475016481528786966903782126022777781785995425172891423221621891354298551687695254958799310931101651399414668146450159780878492063412611960399843691852289900356324938985943356388992901125082559905813371799082602224024690634678240004540465152.000000 -nan -nan -nan -50916364802612182555813306156843818723995107981001726355013005495229812748915872318070769124513453556869067896165345190291561186906543454481325382467367036371599360.000000 -4113812031722889586945696234119025339663823506187650753745146287881620143345206021737336476049216751351340866827810341459254133304749461477407520705762007724868293973611902478834739245217521475099770321108992.000000 -nan -nan -nan -18818914603724345178992732097742431025588236468776170559572351496084340267986443583197485206780541864670182646618520072064311185596679403409564223158115225736387439617496445559504896.000000 -3354985647577115604248563401579821471530014431111794469995236570822046826657993380070193366101431203551439200229294252267184486458651475786209494746674480343654275035020454650632863943596753328631960010815133348209336872491443646627840.000000 -nan -nan -2793258228613792388833551403688218267503789629939014438179541516479082719270217564114875472798066894250787835881902519721843043668845405449868504543980103899336879491994210056883471394359393188855026810880.000000 83854216038683297672840386229264115934739122234147961501753890058876269068337547943102744339166863720893765810087575950105036394005141484772350332033651214579852355847192845332855409907794889721136786497208357093522600436420667700344358133703444575289344.000000 -nan -nan -18818915359139972519108035153763942737889393085566022184878788080690268857188648998886144428460838287473726552135968448707145126617015382791635107105481035731713746798903046220808192.000000 -3490774707191964858906128616511549005348525522318907154347942837350069321688142290914498435244909502019486014815563123816654039150162623255031552223846472654226407234438340163530801622623570900301689940307313559825925900255539702530048.000000 -nan -nan -nan -21184233707798841626469182896936426581174743724990981599202845504519997139829003929047633616881912259057985389850644002738791684408301662311463976146837952186866691299819028241754883673918307110651531043187171828485180463595957071642624.000000 -3752600454151742677737455828545368516101861964755015503716666787857113808158302490946891317443521721171337246689665914822524678582327590141915561741602881887634282327817058912625661829312022821478977286686001413761918688557392037747688843766570716388732698624.000000 -nan -nan -nan -21229467197242216622489233908735076652463610956177818971554660396313985383574909108835171711298039799486136889565612482554071614744608736097186689622872490473136962751176259028973654927392154678100567128394442473251789566500406539845632.000000 -3623298800927954652748381734840058730507755598236599354306366768002650993709093406822557189873704348517751248743960349623793883326167618890690022146850289237589188449309609906894669827881951957589717564129556583912204562755525824525987099151362756097458831360.000000 -nan -nan -2793258228651483205337162495170340006812354963851630312108746386266918028553522428243396864659857378809613899050850227033902736236564016056804427733253999023215321977979311831735440502086060487556233953280.000000 83849331537865341046217478322049198607573769910793637588656154112377117151825933803857928388941637452298871875652942995304229136714689773116427768886552494259493716225299251729558093163172192054328890095879002819580707203830995099320334602708349054091264.000000 -nan -nan -18818915359134064646288710026041634913677162426354948137304249453730613526427619960280368437630863618391246291389514372725529585168407636456516191634201742783368974717108153661521920.000000 -3490774707192374340930141308048606626130645193359093100665161316091148414968117381519900809027395853738030323165123904007151290329666451133077104590533878504424237841623772628964066616461053931952201382318833504643050331262442734092288.000000 -nan -nan -nan -21184151632164237260179665999633867661689867033075604587091499483724069654939012127623293156007040189110877820158540224493184358286648612260322795225718850988997882523780348338235136463005748740843382371543613525671459537696756454129664.000000 -3623298800573206469601928288313519169699548741737020814474910004852757974831747709107845096114354875883184877548520504787394841400716398294374837060869560400745079259875519671592567208742286135127972195823731244017271643505021759681612240245321817227828133888.000000 -nan -nan -2793258228612863972267441027781299952920451936379615388872707611522506118449009300967446656244929033330809069021132134378818241193627275802557648482561270014275847151777923914900786023061567486794666082304.000000 83849331528349016526311410358776167000951177332823993497511294760325343791273487331403298192744099097279243067895905215518906423055991291277609517362310333229074865640021891936010500346851250487951003418625871743251431509714523771711990315356354538110976.000000 -nan -nan -18818915359134064646288710026041634913677162426354948137304249453730613526427619960280368437630863618391246291389514372725529585168407636456516191634201742783368974717108153661521920.000000 -3490774707192374340930141308048606626130645193359093100665161316091148414968117381519900809027395853738030323165123904007151290329666451133077104590533878504424237841623772628964066616461053931952201382318833504643050331262442734092288.000000 -nan -nan -nan -21183504625970307592995404470632614446013579468667397630326772681022021805769721132540525683489039267727331534289777081753696487902462644987355248360822266248455320724017724471535421190000352953363817604222635682924087704672967950598144.000000 -70469900352868800729428407021719079400423016158243952076237081704337382556755509956570447628605615818476181582940438348338571764837684932381611202963608265967065679057874867348197645200312074067311246785856449058489271684450524072009484828387569099020959744.000000 -nan -nan -7488307249184661578701292484397839278881559909155769624951645358405260825403102092157611591236142625703374048801733145961193739560565291753439783841164382704388296037892096.000000 -3338968423001555721429165205628118156463911402113778486173259117565203149113749625876503995996604670901131520939690904342118542533113747838640007289994396172643403016406508639629188755956103400892964529768572219421259204891871625290450735205137145289302120134667984958935531520.000000 -nan -nan -nan -nan -nan -nan -nan -nan -nan -nan -nan -nan -nan -nan -nan -nan -nan -nan -nan -nan -nan -nan -nan -nan -nan -nan -nan -nan -nan -nan -nan -nan -nan -nan -nan -nan -nan -nan -nan -nan -nan -nan -nan -nan -nan -nan -nan -nan -nan -nan -nan -nan -nan -nan -nan -nan -nan -nan -nan -nan -nan -nan -nan -nan -nan -nan -nan -nan -nan -nan -nan -nan -nan -nan -nan -nan -nan -nan -nan -nan -nan -nan -nan -nan -nan -nan -nan -nan -nan -nan -nan -nan -nan -nan -nan -nan -nan -nan -nan -nan -nan -nan -nan -nan -nan -nan -nan -nan -nan -nan -nan -nan -nan -nan -nan -nan -nan -nan -nan -nan -nan -nan -nan -nan -nan -nan -nan -nan -nan -nan -nan -nan -nan -nan -nan -nan -nan -nan -nan -nan -nan -nan -nan -nan -nan -nan -nan -nan -nan -nan -nan -nan -nan -nan -nan -nan -nan -nan -nan -nan -nan -nan -nan -nan -nan -nan -nan -nan -nan -nan -nan -nan -nan -nan -nan -nan -nan -nan -nan -nan -nan -nan -nan -nan -nan -nan -nan -nan -nan -nan -nan -nan -nan -nan -nan -nan -nan -nan -nan -nan -nan -nan -nan -nan -nan -nan -nan -nan -nan -nan -nan -nan -nan -nan -nan -nan -nan -nan -nan -nan -nan -nan -nan -nan -nan -nan -nan -nan -nan -nan -nan -nan -nan -nan -nan -nan -nan -nan -nan -nan -nan -nan -nan -nan -nan -nan -nan -nan -nan -nan -nan -nan -nan -nan -nan -nan -nan -nan -nan -nan -nan -nan -nan -nan -nan -nan -nan -nan -nan -nan -nan -nan -nan -nan -nan -nan -nan -nan -nan -nan -nan -nan -nan -nan -nan -nan -nan -nan -nan -nan -nan -nan -nan -nan -nan -nan -nan -nan -nan -nan -nan -nan -nan -nan -nan -nan -nan -nan -nan -nan -nan -nan -nan -nan -nan -nan -nan -nan -nan -nan -nan -nan -nan -nan -nan -nan -nan -nan -nan -nan -nan -nan -nan -nan -nan -nan -nan -nan -nan -nan -nan -nan -nan -nan -nan -nan -nan -nan -nan -nan -nan -nan -nan -nan -nan -nan -nan -nan -nan -nan -nan -nan -nan -nan -nan -nan -nan -nan -nan -nan -nan -nan -nan -nan -nan -nan -nan -nan -nan -nan -nan -nan -nan -nan -nan -nan -nan -nan -nan -nan -nan -nan -nan -nan -nan -nan -nan -nan -nan -nan -nan -nan -nan -nan -nan -nan -nan -nan -nan -nan -nan -nan -nan -nan -nan -nan -nan -nan -nan -nan -nan -nan -nan -nan -nan -nan -nan -nan -nan -nan -nan -nan -nan -nan -nan -nan -nan -nan -nan -nan -nan -nan -nan -nan -nan -nan -nan -nan -nan -nan -nan -nan -nan -nan -nan -nan -nan -nan -nan -nan -nan -nan -nan -nan -nan -nan -nan -nan -nan -nan -nan -nan -nan -nan -nan -nan -nan -nan -nan -nan -nan -nan -nan -nan -nan -nan -nan -nan -nan -nan -nan -nan -nan -nan -nan -nan -nan -nan -nan -nan -nan -nan -nan -nan -nan -nan -nan -nan -nan -nan -nan -nan -nan -nan -nan -nan -nan -nan -nan -nan -nan -nan -nan -nan -nan -nan -nan -nan -nan -nan -nan -nan -nan -nan -nan -nan -nan -nan -nan -nan -nan -nan -nan -nan -nan -nan -nan -nan -nan -nan -nan -nan -nan -nan -nan -nan -nan -nan -nan -nan -nan -nan -nan -nan -nan -nan -nan -nan -nan -nan -nan -nan -nan -nan -nan -nan -nan -nan -nan -nan -nan -nan -nan -nan -nan -nan -nan -nan -nan -nan -nan -nan -nan -nan -nan -nan -nan -nan -nan -nan -nan -nan -nan -nan -nan -nan -nan -nan -nan -nan -nan -nan -nan -nan -nan -nan -nan -nan -nan -nan -nan -nan -nan -nan -nan -nan -nan -nan -nan -nan -nan -nan -nan -nan -nan -nan -nan -nan -nan -nan -nan -nan -nan -nan -nan -nan -nan -nan -nan -nan -nan -nan -nan -nan -nan -nan -nan -nan -nan -nan -nan -nan -nan -nan -nan -nan -nan -nan -nan -nan -nan -nan -nan -nan -nan -nan -nan -nan -nan -nan -nan -nan -nan -nan -nan -nan -nan -nan -nan -nan -nan -nan -nan -nan -nan -nan -nan -nan -nan -nan -nan -nan -nan -nan -nan -nan -nan -nan -nan -nan -nan -nan -nan -nan -nan -nan -nan -nan -nan -nan -nan -nan -nan -nan -nan -nan -nan -nan -nan -nan -nan -nan -nan -nan -nan -nan -nan -nan -nan -nan -nan -nan -nan -nan -nan -nan -nan -nan -nan -nan -nan -nan -nan -nan -nan -nan -nan -nan -nan -nan -nan -nan -nan -nan -nan -nan -nan -nan -nan -nan -nan -nan -nan -nan -nan -nan -nan -nan -nan -nan -nan -nan -nan -nan -nan -nan -nan -nan -nan -nan -nan -nan -nan -nan -nan -nan -nan -nan -nan -nan -nan -nan -nan -nan -nan -nan -nan -nan -nan -nan -nan -nan -nan -nan -nan -nan -nan -nan -nan -nan -nan -nan -nan -nan -nan -nan -nan -nan -nan -nan -nan -nan -nan -nan -nan -nan -nan -nan -nan -nan -nan -nan -nan -nan -nan -nan -nan -nan -nan -nan -nan -nan -nan -nan -nan -nan -nan -nan -nan -nan -nan -nan -nan -nan -nan -nan -nan -nan -nan -nan -nan -nan -nan -nan -nan -nan -nan -nan -nan -nan -nan -nan -nan -nan -nan -nan -nan -nan -nan -nan -nan -nan -nan -nan -nan -nan -nan -nan -nan -nan -nan -nan -nan -nan -nan -nan -nan -nan -nan -nan -nan -nan -nan -nan -nan -nan -nan -nan -nan -nan -nan -nan -nan -nan -nan -nan -nan -nan -nan -nan -nan -nan -nan -nan -nan -nan -nan -nan -nan -nan -nan -nan -nan -nan -nan -nan -nan -nan -nan -nan -nan -nan -nan -nan -nan -nan -nan -nan -nan -nan -nan -nan -nan -nan -nan -nan -nan -nan -nan -nan -nan -nan -nan -nan -nan -nan -nan -nan -nan -nan -nan -nan -nan -nan -nan -nan -nan -nan -nan -nan -nan -nan -nan -nan -nan -nan -nan -nan -nan -nan -nan -nan -nan -nan -nan -nan -nan -nan -nan -nan -nan -nan -nan -nan -nan -nan -nan -nan -nan -nan -nan -nan -nan -nan -nan -nan -nan -nan -nan -nan -nan -nan -nan -nan -nan -nan -nan -nan -nan -nan -nan -nan -nan -nan -nan -nan -nan -nan -nan -nan -nan -nan -nan -nan -nan -nan -nan -nan -nan -nan -nan -nan -nan -nan -nan -nan -nan -nan -nan -nan -nan -nan -nan -nan -nan -nan -nan -nan -nan -nan -nan -nan -nan -nan -nan -nan -nan -nan -nan -nan -nan -nan -nan -nan -nan -nan -nan -nan -nan -nan -nan -nan -nan -nan -nan -nan -nan -nan -nan -nan -nan -nan -nan -nan -nan -nan -nan -nan -nan -nan -nan -nan -nan -nan -nan -nan -nan -nan -nan -nan -nan -nan -nan -nan -nan -nan -nan -nan -nan -nan -nan -nan -nan -nan -nan -nan -nan -nan -nan -nan -nan -nan -nan -nan -nan -nan -nan -nan -nan -nan -nan -nan -nan -nan -nan -nan -nan -nan -nan -nan -nan -nan -nan -nan -nan -nan -nan -nan -nan -nan -nan -nan -nan -nan -nan -nan -nan -nan -nan -nan -nan -nan -nan -nan -nan -nan -nan -nan -nan -nan -nan -nan -nan -nan -nan -nan -nan -nan -nan -nan -nan -nan -nan -nan -nan -nan -nan -nan -nan -nan -nan -nan -nan -nan -nan -nan -nan -nan -nan -nan -nan -nan -nan -nan -nan -nan -nan -nan -nan -nan -nan -nan -nan -nan -nan -nan -nan -nan -nan -nan -nan -nan -nan -nan -nan -nan -nan -nan -nan -nan -nan -nan -nan -nan -nan -nan -nan -nan -nan -nan -nan -nan -nan -nan -nan -nan -nan -nan -nan -nan -nan -nan -nan -nan -nan -nan -nan -nan -nan -nan -nan -nan -nan -nan -nan -nan -nan -nan -nan -nan -nan -nan -nan -nan -nan -nan -nan -nan -nan -nan -nan -nan -nan -nan -nan -nan -nan -nan -nan -nan -nan -nan -nan -nan -nan -nan -nan -nan -nan -nan -nan -nan -nan -nan -nan -nan -nan -nan -nan -nan -nan -nan -nan -nan -nan -nan -nan -nan -nan -nan -nan -nan -nan -nan -nan -nan -nan -nan -nan -nan -nan -nan -nan -nan -nan -nan -nan -nan -nan -nan -nan -nan -nan -nan -nan -nan -nan -nan -nan -nan -nan -nan -nan -nan -nan -nan -nan -nan -nan -nan -nan -nan -nan -nan -nan -nan -nan -nan -nan -nan -nan -nan -nan -nan -nan -nan -nan -nan -nan -nan -nan -nan -nan -nan -nan -nan -nan -nan -nan -nan -nan -nan -nan -nan -nan -nan -nan -nan -nan -nan -nan -nan -nan -nan -nan -nan -nan -nan -nan -nan -nan -nan -nan -nan -nan -nan -nan -nan -nan -nan -nan -nan -nan -nan -nan -nan -nan -nan -nan -nan -nan -nan -nan -nan -nan -nan -nan -nan -nan -nan -nan -nan -nan -nan -nan -nan -nan -nan -nan -nan -nan -nan -nan -nan -nan -nan -nan -nan -nan -nan -nan -nan -nan -nan -nan -nan -nan -nan -nan -nan -nan -nan -nan -nan -nan -nan -nan -nan -nan -nan -nan -nan -nan -nan -nan -nan -nan -nan -nan -nan -nan -nan -nan -nan -nan -nan -nan -nan -nan -nan -nan -nan -nan -nan -nan -nan -nan -nan -nan -nan -nan -nan -nan -nan -nan -nan -nan -nan -nan -nan -nan -nan -nan -nan -nan -nan -nan -nan -nan -nan -nan -nan -nan -nan -nan -nan -nan -nan -nan -nan -nan -nan -nan -nan -nan -nan -nan -nan -nan -nan -nan -nan -nan -nan -nan -nan -nan -nan -nan -nan -nan -nan -nan -nan -nan -nan -nan -nan -nan -nan -nan -nan -nan -nan -nan -nan -nan -nan -nan -nan -nan -nan -nan -nan -nan -nan -nan -nan -nan -nan -nan -nan -nan -nan -nan -nan -nan -nan -nan -nan -nan -nan -nan -nan -nan -nan -nan -nan -nan -nan -nan -nan -nan -nan -nan -nan -nan -nan -nan -nan -nan -nan -nan -nan -nan -nan -nan -nan -nan -nan -nan -nan -nan -nan -nan -nan -nan -nan -nan -nan -nan -nan -nan -nan -nan -nan -nan -nan -nan -nan -nan -nan -nan -nan -nan -nan -nan -nan -nan -nan -nan -nan -nan -nan -nan -nan -nan -nan -nan -nan -nan -nan -nan -nan -nan -nan -nan -nan -nan -nan -nan -nan -nan -nan -nan -nan -nan -nan -nan -nan -nan -nan -nan -nan -nan -nan -nan -nan -nan -nan -nan -nan -nan -nan -nan -nan -nan -nan -nan -nan -nan -nan -nan -nan -nan -nan -nan -nan -nan -nan -nan -nan -nan -nan -nan -nan -nan -nan -nan -nan -nan -nan -nan -nan -nan -nan -nan -nan -nan -nan -nan -nan -nan -nan -nan -nan -nan -nan -nan -nan -nan -nan -nan -nan -nan -nan -nan -nan -nan -nan -nan -nan -nan -nan -nan -nan -nan -nan -nan -nan -nan -nan -nan -nan -nan -nan -nan -nan -nan -nan -nan -nan -nan -nan -nan -nan -nan -nan -nan -nan -nan -nan -nan -nan -nan -nan -nan -nan -nan -nan -nan -nan -nan -nan -nan -nan -nan -nan -nan -nan -nan -nan -nan -nan -nan -nan -nan -nan -nan -nan -nan -nan -nan -nan -nan -nan -nan -nan -nan -nan -nan -nan -nan -nan -nan -nan -nan -nan -nan -nan -nan -nan -nan -nan -nan -nan -nan -nan -nan -nan -nan -nan -nan -nan -nan -nan -nan -nan -nan -nan -nan -nan -nan -nan -nan -nan -nan -nan -nan -nan -nan -nan -nan -nan -nan -nan -nan -nan -nan -nan -nan -nan -nan -nan -nan -nan -nan -nan -nan -nan -nan -nan -nan -nan -nan -nan -nan -nan -nan -nan -nan -nan -nan -nan -nan -nan -nan -nan -nan -nan -nan -nan -nan -nan -nan -nan -nan -nan -nan -nan -nan -nan -nan -nan -nan -nan -nan -nan -nan -nan -nan -nan -nan -nan -nan -nan -nan -nan -nan -nan -nan -nan -nan -nan -nan -nan -nan -nan -nan -nan -nan -nan -nan -nan -nan -nan -nan -nan -nan -nan -nan -nan -nan -nan -nan -nan -nan -nan -nan -nan -nan -nan -nan -nan -nan -nan -nan -nan -nan -nan -nan -nan -nan -nan -nan -nan -nan -nan -nan -nan -nan -nan -nan -nan -nan -nan -nan -nan -nan -nan -nan -nan -nan -nan -nan -nan -nan -nan -nan -nan -nan -nan -nan -nan -nan -nan -nan -nan -nan -nan -nan -nan -nan -nan -nan -nan -nan -nan -nan -nan -nan -nan -nan -nan -nan -nan -nan -nan -nan -nan -nan -nan -nan -nan -nan -nan -nan -nan -nan -nan -nan -nan -nan -nan -nan -nan -nan -nan -nan -nan -nan -nan -nan -nan -nan -nan -nan -nan -nan -nan -nan -nan -nan -nan -nan -nan -nan -nan -nan -nan -nan -nan -nan -nan -nan -nan -nan -nan -nan -nan -nan -nan -nan -nan -nan -nan -nan -nan -nan -nan -nan -nan -nan -nan -nan -nan -nan -nan -nan -nan -nan -nan -nan -nan -nan -nan -nan -nan -nan -nan -nan -nan -nan -nan -nan -nan -nan -nan -nan -nan -nan -nan -nan -nan -nan -nan -nan -nan -nan -nan -nan -nan -nan -nan -nan -nan -nan -nan -nan -nan -nan -nan -nan -nan -nan -nan -nan -nan -nan -nan -nan -nan -nan -nan -nan -nan -nan -nan -nan -nan -nan -nan -nan -nan -nan -nan -nan -nan -nan -nan -nan -nan -nan -nan -nan -nan -nan -nan -nan -nan -nan -nan -nan -nan -nan -nan -nan -nan -nan -nan -nan -nan -nan -nan -nan -nan -nan -nan -nan -nan -nan -nan -nan -nan -nan -nan -nan -nan -nan -nan -nan -nan -nan -nan -nan -nan -nan -nan -nan -nan -nan -nan -nan -nan -nan -nan -nan -nan -nan -nan -nan -nan -nan -nan -nan -nan -nan -nan -nan -nan -nan -nan -nan -nan -nan -nan -nan -nan -nan -nan -nan -nan -nan -nan -nan -nan -nan -nan -nan -nan -nan -nan -nan -nan -nan -nan -nan -nan -nan -nan -nan -nan -nan -nan -nan -nan -nan -nan -nan -nan -nan -nan -nan -nan -nan -nan -nan -nan -nan -nan -nan -nan -nan -nan -nan -nan -nan -nan -nan -nan -nan -nan -nan -nan -nan -nan -nan -nan -nan -nan -nan -nan -nan -nan -nan -nan -nan -nan -nan -nan -nan -nan -nan -nan -nan -nan -nan -nan -nan -nan -nan -nan -nan -nan -nan -nan -nan -nan -nan -nan -nan -nan -nan -nan -nan -nan -nan -nan -nan -nan -nan -nan -nan -nan -nan -nan -nan -nan -nan -nan -nan -nan -nan -nan -nan -nan -nan -nan -nan -nan -nan -nan -nan -nan -nan -nan -nan -nan -nan -nan -nan -nan -nan -nan -nan -nan -nan -nan -nan -nan -nan -nan -nan -nan -nan -nan -nan -nan -nan -nan -nan -nan -nan -nan -nan -nan -nan -nan -nan -nan -nan -nan -nan -nan -nan -nan -nan -nan -nan -nan -nan -nan -nan -nan -nan -nan -nan -nan -nan -nan -nan -nan -nan -nan -nan -nan -nan -nan -nan -nan -nan -nan -nan -nan -nan -nan -nan -nan -nan -nan -nan -nan -nan -nan -nan -nan -nan -nan -nan -nan -nan -nan -nan -nan -nan -nan -nan -nan -nan -nan -nan -nan -nan -nan -nan -nan -nan -nan -nan -nan -nan -nan -nan -nan -nan -nan -nan -nan -nan -nan -nan -nan -nan -nan -nan -nan -nan -nan -nan -nan -nan -nan -nan -nan -nan -nan -nan -nan -nan -nan -nan -nan -nan -nan -nan -nan -nan -nan -nan -nan -nan -nan -nan -nan -nan -nan -nan -nan -nan -nan -nan -nan -nan -nan -nan -nan -nan -nan -nan -nan -nan -nan -nan -nan -nan -nan -nan -nan -nan -nan -nan -nan -nan -nan -nan -nan -nan -nan -nan -nan -nan -nan -nan -nan -nan -nan -nan -nan -nan -nan -nan -nan -nan -nan -nan -nan -nan -nan -nan -nan -nan -nan -nan -nan -nan -nan -nan -nan -nan -nan -nan -nan -nan -nan -nan -nan -nan -nan -nan -nan -nan -nan -nan -nan -nan -nan -nan -nan -nan -nan -nan -nan -nan -nan -nan -nan -nan -nan -nan -nan -nan -nan -nan -nan -nan -nan -nan -nan -nan -nan -nan -nan -nan -nan -nan -nan -nan -nan -nan -nan -nan -nan -nan -nan -nan -nan -nan -nan -nan -nan -nan -nan -nan -nan -nan -nan -nan -nan -nan -nan -nan -nan -nan -nan -nan -nan -nan -nan -nan -nan -nan -nan -nan -nan -nan -nan -nan -nan -nan -nan -nan -nan -nan -nan -nan -nan -nan -nan -nan -nan -nan -nan -nan -nan -nan -nan -nan -nan -nan -nan -nan -nan -nan -nan -nan -nan -nan -nan -nan -nan -nan -nan -nan -nan -nan -nan -nan -nan -nan -nan -nan -nan -nan -nan -nan -nan -nan -nan -nan -nan -nan -nan -nan -nan -nan -nan -nan -nan -nan -nan -nan -nan -nan -nan -nan -nan -nan -nan -nan -nan -nan -nan -nan -nan -nan -nan -nan -nan -nan -nan -nan -nan -nan -nan -nan -nan -nan -nan -nan -nan -nan -nan -nan -nan -nan -nan -nan -nan -nan -nan -nan -nan -nan -nan -nan -nan -nan -nan -nan -nan -nan -nan -nan -nan -nan -nan -nan -nan -nan -nan -nan -nan -nan -nan -nan -nan -nan -nan -nan -nan -nan -nan -nan -nan -nan -nan -nan -nan -nan -nan -nan -nan -nan -nan -nan -nan -nan -nan -nan -nan -nan -nan -nan -nan -nan -nan -nan -nan -nan -nan -nan -nan -nan -nan -nan -nan -nan -nan -nan -nan -nan -nan -nan -nan -nan -nan -nan -nan -nan -nan -nan -nan -nan -nan -nan -nan -nan -nan -nan -nan -nan -nan
</DataArray>
<DataArray type="Float64" Name="Velocity" NumberOfComponents="3" format="ascii">